<LesHouchesEvents version="3.0">
<header>
<!--
#*********************************************************************
#                                                                    *
#                        MadGraph5_aMC@NLO                           *
#                                                                    *
#                           Going Beyond                             *
#                                                                    *
#                   http://madgraph.hep.uiuc.edu                     *
#                   http://madgraph.phys.ucl.ac.be                   *
#                   http://amcatnlo.cern.ch                          *
#                                                                    *
#                     The MadGraph5_aMC@NLO team                     *
#                                                                    *
#....................................................................*
#                                                                    *
# This file contains all the information necessary to reproduce      *
# the events generated:                                              *
#                                                                    *
# 1. software version                                                *
# 2. proc_card          : code generation info including model       *
# 3. param_card         : model primary parameters in the LH format  *
# 4. run_card           : running parameters (collider and cuts)     *
# 5. pythia_card        : present only if pythia has been run        *
# 6. pgs_card           : present only if pgs has been run           *
# 7. delphes_cards      : present only if delphes has been run       *
#                                                                    *
#                                                                    *
#*********************************************************************
-->
<MGVersion>
2.6.6
</MGVersion>
<MG5ProcCard>
<![CDATA[
#************************************************************
#*                     MadGraph5_aMC@NLO                    *
#*                                                          *
#*                *                       *                 *
#*                  *        * *        *                   *
#*                    * * * * 5 * * * *                     *
#*                  *        * *        *                   *
#*                *                       *                 *
#*                                                          *
#*                                                          *
#*         VERSION 2.6.6                 2018-06-28         *
#*                                                          *
#*    The MadGraph5_aMC@NLO Development Team - Find us at   *
#*    https://server06.fynu.ucl.ac.be/projects/madgraph     *
#*                                                          *
#************************************************************
#*                                                          *
#*               Command File for MadGraph5_aMC@NLO         *
#*                                                          *
#*     run as ./bin/mg5_aMC  filename                       *
#*                                                          *
#************************************************************
set default_unset_couplings 99
set group_subprocesses Auto
set ignore_six_quark_processes False
set loop_optimized_output True
set loop_color_flows False
set gauge unitary
set complex_mass_scheme False
set max_npoint_for_channel 0
import model FreezeInLeptonsDiffPID
define p = g u c d s u~ c~ d~ s~
define j = g u c d s u~ c~ d~ s~
define l+ = e+ mu+
define l- = e- mu-
define vl = ve vm vt
define vl~ = ve~ vm~ vt~
generate p p > el- el+, (el- > l- n1), (el+ > l+ n1)
output teste_FIMP_leptons_diffPID_CMSSW
]]>
</MG5ProcCard>
<MGProcCard>
#*********************************************************************
#                        MadGraph/MadEvent                           *
#                   http://madgraph.hep.uiuc.edu                     *
#                                                                    *
#                          proc_card.dat                             *
#*********************************************************************
#                                                                    *
#            This Files is generated by MADGRAPH 5                   *
#                                                                    *
# WARNING: This Files is generated for MADEVENT (compatibility issue)*
#          This files is NOT a valid MG4 proc_card.dat               *
#          Running this in MG4 will NEVER reproduce the result of MG5*
#                                                                    *
#*********************************************************************
#*********************************************************************
# Process(es) requested : mg2 input                                  *
#*********************************************************************
# Begin PROCESS # This is TAG. Do not modify this line
p p > el- el+ , (el- > l- n1) , (el+ > l+ n1)           #Process
# Be carefull the coupling are here in MG5 convention
          
end_coup           # End the couplings input

done               # this tells MG there are no more procs
# End PROCESS  # This is TAG. Do not modify this line
#*********************************************************************
# Model information                                                  *
#*********************************************************************
# Begin MODEL  # This is TAG. Do not modify this line
FreezeInLeptonsDiffPID
# End   MODEL  # This is TAG. Do not modify this line
#*********************************************************************
# Start multiparticle definitions                                    *
#*********************************************************************
# Begin MULTIPARTICLES # This is TAG. Do not modify this line

# End  MULTIPARTICLES # This is TAG. Do not modify this line
</MGProcCard>
<MGRunCard>
<![CDATA[
#*********************************************************************
#                       MadGraph5_aMC@NLO                            *
#                                                                    *
#                     run_card.dat MadEvent                          *
#                                                                    *
#  This file is used to set the parameters of the run.               *
#                                                                    *
#  Some notation/conventions:                                        *
#                                                                    *
#   Lines starting with a '# ' are info or comments                  *
#                                                                    *
#   mind the format:   value    = variable     ! comment             *
#                                                                    *
#   To display more options, you can type the command:               *
#      update full_run_card                                          *
#*********************************************************************
#
#*******************                                                 
# Running parameters
#*******************                                                 
#                                                                    
#*********************************************************************
# Tag name for the run (one word)                                    *
#*********************************************************************
  tag_1     = run_tag ! name of the run 
#*********************************************************************
# Number of events and rnd seed                                      *
# Warning: Do not generate more than 1M events in a single run       *
#*********************************************************************
  1000 = nevents ! Number of unweighted events requested 
#  100 = nevents ! Number of unweighted events requested
 21 = iseed   ! rnd seed (0=assigned automatically=default))
#*********************************************************************
# Collider type and energy                                           *
# lpp: 0=No PDF, 1=proton, -1=antiproton, 2=photon from proton,      *
#                                         3=photon from electron     *
#*********************************************************************
     1        = lpp1    ! beam 1 type 
     1        = lpp2    ! beam 2 type
     6500.0     = ebeam1  ! beam 1 total energy in GeV
     6500.0     = ebeam2  ! beam 2 total energy in GeV
# To see polarised beam options: type "update beam_pol"
#*********************************************************************
# PDF CHOICE: this automatically fixes also alpha_s and its evol.    *
#*********************************************************************
     nn23lo1    = pdlabel     ! PDF set                                     
     230000    = lhaid     ! if pdlabel=lhapdf, this is the lhapdf number
# To see heavy ion options: type "update ion_pdf"
#*********************************************************************
# Renormalization and factorization scales                           *
#*********************************************************************
 False = fixed_ren_scale  ! if .true. use fixed ren scale
 False        = fixed_fac_scale  ! if .true. use fixed fac scale
 91.188  = scale            ! fixed ren scale
 91.188  = dsqrt_q2fact1    ! fixed fact scale for pdf1
 91.188  = dsqrt_q2fact2    ! fixed fact scale for pdf2
 -1 = dynamical_scale_choice ! Choose one of the preselected dynamical choices
 1.0  = scalefact        ! scale factor for event-by-event scales
#*********************************************************************
# Type and output format
#*********************************************************************
  False     = gridpack  !True = setting up the grid pack
  1.0 = time_of_flight ! threshold (in mm) below which the invariant livetime is not written (-1 means not written)
  3.0 = lhe_version       ! Change the way clustering information pass to shower.        
  True = clusinfo         ! include clustering tag in output
  average =  event_norm       ! average/sum. Normalization of the weight in the LHEF

#*********************************************************************
# Matching parameter (MLM only)
#*********************************************************************
 0 = ickkw            ! 0 no matching, 1 MLM
 1.0 = alpsfact         ! scale factor for QCD emission vx
 False = chcluster        ! cluster only according to channel diag
 4 = asrwgtflavor     ! highest quark flavor for a_s reweight
 False  = auto_ptj_mjj  ! Automatic setting of ptj and mjj if xqcut >0
                                   ! (turn off for VBF and single top processes) 
 0.0   = xqcut   ! minimum kt jet measure between partons
#*********************************************************************
#
#*********************************************************************
# handling of the helicities:
#  0: sum over all helicities
#  1: importance sampling over helicities
#*********************************************************************
   0  = nhel          ! using helicities importance sampling or not.
#*********************************************************************
# Generation bias, check the wiki page below for more information:   *
#  'cp3.irmp.ucl.ac.be/projects/madgraph/wiki/LOEventGenerationBias' *
#*********************************************************************
 None = bias_module  ! Bias type of bias, [None, ptj_bias, -custom_folder-]
 {} = bias_parameters ! Specifies the parameters of the module.
#
#*******************************                                                 
# Parton level cuts definition *
#*******************************                                     
#                                                                    
#
#*********************************************************************
# BW cutoff (M+/-bwcutoff*Gamma) ! Define on/off-shell for "$" and decay  
#*********************************************************************
  15.0  = bwcutoff      ! (M+/-bwcutoff*Gamma)
#*********************************************************************
# Apply pt/E/eta/dr/mij/kt_durham cuts on decay products or not
# (note that etmiss/ptll/ptheavy/ht/sorted cuts always apply)
#*********************************************************************
   False  = cut_decays    ! Cut decay products 
#*********************************************************************
# Standard Cuts                                                      *
#*********************************************************************
# Minimum and maximum pt's (for max, -1 means no cut)                *
#*********************************************************************
 20.0  = ptj       ! minimum pt for the jets 
 0.0  = ptb       ! minimum pt for the b 
 10.0  = pta       ! minimum pt for the photons 
 10.0  = ptl       ! minimum pt for the charged leptons 
 0.0  = misset    ! minimum missing Et (sum of neutrino's momenta)
 -1.0  = ptjmax    ! maximum pt for the jets
 -1.0  = ptbmax    ! maximum pt for the b
 -1.0  = ptamax    ! maximum pt for the photons
 -1.0  = ptlmax    ! maximum pt for the charged leptons
 -1.0  = missetmax ! maximum missing Et (sum of neutrino's momenta)
 {} = pt_min_pdg ! pt cut for other particles (use pdg code). Applied on particle and anti-particle
 {}	= pt_max_pdg ! pt cut for other particles (syntax e.g. {6: 100, 25: 50}) 
#
# For display option for energy cut in the partonic center of mass frame type 'update ecut'
#
#*********************************************************************
# Maximum and minimum absolute rapidity (for max, -1 means no cut)   *
#*********************************************************************
  5.0 = etaj    ! max rap for the jets 
  -1.0  = etab    ! max rap for the b
 2.5  = etaa    ! max rap for the photons 
 2.5  = etal    ! max rap for the charged leptons 
 0.0  = etajmin ! min rap for the jets
 0.0  = etabmin ! min rap for the b
 0.0  = etaamin ! min rap for the photons
 0.0  = etalmin ! main rap for the charged leptons
 {} = eta_min_pdg ! rap cut for other particles (use pdg code). Applied on particle and anti-particle
 {} = eta_max_pdg ! rap cut for other particles (syntax e.g. {6: 2.5, 23: 5})
#*********************************************************************
# Minimum and maximum DeltaR distance                                *
#*********************************************************************
 0.4 = drjj    ! min distance between jets 
 0.0   = drbb    ! min distance between b's 
 0.4 = drll    ! min distance between leptons 
 0.4 = draa    ! min distance between gammas 
 0.0   = drbj    ! min distance between b and jet 
 0.4 = draj    ! min distance between gamma and jet 
 0.4 = drjl    ! min distance between jet and lepton 
 0.0   = drab    ! min distance between gamma and b 
 0.0   = drbl    ! min distance between b and lepton 
 0.4 = dral    ! min distance between gamma and lepton 
 -1.0  = drjjmax ! max distance between jets
 -1.0  = drbbmax ! max distance between b's
 -1.0  = drllmax ! max distance between leptons
 -1.0  = draamax ! max distance between gammas
 -1.0  = drbjmax ! max distance between b and jet
 -1.0  = drajmax ! max distance between gamma and jet
 -1.0  = drjlmax ! max distance between jet and lepton
 -1.0  = drabmax ! max distance between gamma and b
 -1.0  = drblmax ! max distance between b and lepton
 -1.0  = dralmax ! maxdistance between gamma and lepton
#*********************************************************************
# Minimum and maximum invariant mass for pairs                       *
# WARNING: for four lepton final state mmll cut require to have      *
#          different lepton masses for each flavor!                  *           
#*********************************************************************
 0.0   = mmjj    ! min invariant mass of a jet pair 
 0.0   = mmbb    ! min invariant mass of a b pair 
 0.0   = mmaa    ! min invariant mass of gamma gamma pair
 0.0   = mmll    ! min invariant mass of l+l- (same flavour) lepton pair
 -1.0  = mmjjmax ! max invariant mass of a jet pair
 -1.0  = mmbbmax ! max invariant mass of a b pair
 -1.0  = mmaamax ! max invariant mass of gamma gamma pair
 -1.0  = mmllmax ! max invariant mass of l+l- (same flavour) lepton pair
 {} = mxx_min_pdg ! min invariant mass of a pair of particles X/X~ (e.g. {6:250})
 {'default': False} = mxx_only_part_antipart ! if True the invariant mass is applied only 
                       ! to pairs of particle/antiparticle and not to pairs of the same pdg codes.  
#*********************************************************************
# Minimum and maximum invariant mass for all letpons                 *
#*********************************************************************
 0.0   = mmnl    ! min invariant mass for all letpons (l+- and vl) 
 -1.0  = mmnlmax ! max invariant mass for all letpons (l+- and vl) 
#*********************************************************************
# Minimum and maximum pt for 4-momenta sum of leptons                *
#*********************************************************************
 0.0   = ptllmin  ! Minimum pt for 4-momenta sum of leptons(l and vl)
 -1.0  = ptllmax  ! Maximum pt for 4-momenta sum of leptons(l and vl)
#*********************************************************************
# Inclusive cuts                                                     *
#*********************************************************************
 0.0  = ptheavy   ! minimum pt for at least one heavy final state
 0.0  = xptj ! minimum pt for at least one jet  
 0.0  = xptb ! minimum pt for at least one b 
 0.0  = xpta ! minimum pt for at least one photon 
 0.0  = xptl ! minimum pt for at least one charged lepton 
#*********************************************************************
# Control the pt's of the jets sorted by pt                          *
#*********************************************************************
 0.0   = ptj1min ! minimum pt for the leading jet in pt
 0.0   = ptj2min ! minimum pt for the second jet in pt
 0.0   = ptj3min ! minimum pt for the third jet in pt
 0.0   = ptj4min ! minimum pt for the fourth jet in pt
 -1.0  = ptj1max ! maximum pt for the leading jet in pt 
 -1.0  = ptj2max ! maximum pt for the second jet in pt
 -1.0  = ptj3max ! maximum pt for the third jet in pt
 -1.0  = ptj4max ! maximum pt for the fourth jet in pt
 0   = cutuse  ! reject event if fails any (0) / all (1) jet pt cuts
#*********************************************************************
# Control the pt's of leptons sorted by pt                           *
#*********************************************************************
 0.0   = ptl1min ! minimum pt for the leading lepton in pt
 0.0   = ptl2min ! minimum pt for the second lepton in pt
 0.0   = ptl3min ! minimum pt for the third lepton in pt
 0.0   = ptl4min ! minimum pt for the fourth lepton in pt
 -1.0  = ptl1max ! maximum pt for the leading lepton in pt 
 -1.0  = ptl2max ! maximum pt for the second lepton in pt
 -1.0  = ptl3max ! maximum pt for the third lepton in pt
 -1.0  = ptl4max ! maximum pt for the fourth lepton in pt
#*********************************************************************
# Control the Ht(k)=Sum of k leading jets                            *
#*********************************************************************
 0.0   = htjmin ! minimum jet HT=Sum(jet pt)
 -1.0  = htjmax ! maximum jet HT=Sum(jet pt)
 0.0   = ihtmin  !inclusive Ht for all partons (including b)
 -1.0  = ihtmax  !inclusive Ht for all partons (including b)
 0.0   = ht2min ! minimum Ht for the two leading jets
 0.0   = ht3min ! minimum Ht for the three leading jets
 0.0   = ht4min ! minimum Ht for the four leading jets
 -1.0  = ht2max ! maximum Ht for the two leading jets
 -1.0  = ht3max ! maximum Ht for the three leading jets
 -1.0  = ht4max ! maximum Ht for the four leading jets
#***********************************************************************
# Photon-isolation cuts, according to hep-ph/9801442                   *
# When ptgmin=0, all the other parameters are ignored                  *
# When ptgmin>0, pta and draj are not going to be used                 *
#***********************************************************************
 0.0 = ptgmin ! Min photon transverse momentum
 0.4 = R0gamma ! Radius of isolation code
 1.0 = xn ! n parameter of eq.(3.4) in hep-ph/9801442
 1.0 = epsgamma ! epsilon_gamma parameter of eq.(3.4) in hep-ph/9801442
 True = isoEM ! isolate photons from EM energy (photons and leptons)
#*********************************************************************
# WBF cuts                                                           *
#*********************************************************************
 0.0   = xetamin ! minimum rapidity for two jets in the WBF case  
 0.0   = deltaeta ! minimum rapidity for two jets in the WBF case 
#***********************************************************************
# Turn on either the ktdurham or ptlund cut to activate                *
# CKKW(L) merging with Pythia8 [arXiv:1410.3012, arXiv:1109.4829]      *
#***********************************************************************
 -1.0  =  ktdurham        
 0.4   =  dparameter
 -1.0  =  ptlund
 1, 2, 3, 4, 5, 6, 21  =  pdgs_for_merging_cut ! PDGs for two cuts above   
#*********************************************************************
# maximal pdg code for quark to be considered as a light jet         *
# (otherwise b cuts are applied)                                     *
#*********************************************************************
 4 = maxjetflavor    ! Maximum jet pdg code
#*********************************************************************
#
#*********************************************************************
# Store info for systematics studies                                 *
# WARNING: Do not use for interference type of computation           *
#*********************************************************************
   True  = use_syst      ! Enable systematics studies
#
systematics = systematics_program ! none, systematics [python], SysCalc [depreceted, C++]
['--mur=0.5,1,2', '--muf=0.5,1,2', '--pdf=errorset'] = systematics_arguments ! see: https://cp3.irmp.ucl.ac.be/projects/madgraph/wiki/Systematics#Systematicspythonmodule
# Syscalc is deprecated but to see the associate options type'update syscalc'
]]>
</MGRunCard>
<slha>
######################################################################
## PARAM_CARD AUTOMATICALY GENERATED BY MG5 FOLLOWING UFO MODEL   ####
######################################################################
##                                                                  ##
##  Width set on Auto will be computed following the information    ##
##        present in the decay.py files of the model.               ##
##        See  arXiv:1402.1178 for more details.                    ##
##                                                                  ##
######################################################################

###################################
## INFORMATION FOR CKMBLOCK
###################################
Block ckmblock 
    1 2.277360e-01 # cabi 

###################################
## INFORMATION FOR FRBLOCK
###################################
Block frblock 
    1 1.000000e+02 # QS 
    2 2.000000e-05 # yHEeR 
    3 2.000000e-05 # yHEmuR 
    4 2.000000e-05 # yHEtaR 
    5 2.000000e-02 # lams0h 
    6 1.000000e-01 # lams0 

###################################
## INFORMATION FOR MASS
###################################
Block mass 
    1 5.040000e-03 # MD 
    2 2.550000e-03 # MU 
    3 1.010000e-01 # MS 
    4 1.270000e+00 # MC 
    5 4.700000e+00 # MB 
    6 1.720000e+02 # MT 
   11 5.110000e-04 # Me 
   13 1.056600e-01 # MMU 
   15 1.777000e+00 # MTA 
   23 9.118760e+01 # MZ 
   25 1.250000e+02 # mh 
  1000022 2.250000e+03 # ms0 
  1000011 2.250100e+03 # mHE
## Dependent parameters, given by model restrictions.
## Those values should be edited following the 
## analytical expression. MG5 ignores those values 
## but they are important for interfacing the output of MG5
## to external program such as Pythia.
  12 0.000000e+00 # ve : 0.0 
  14 0.000000e+00 # vm : 0.0 
  16 0.000000e+00 # vt : 0.0 
  21 0.000000e+00 # g : 0.0 
  22 0.000000e+00 # a : 0.0 
  24 7.982436e+01 # w+ : cmath.sqrt(MZ__exp__2/2. + cmath.sqrt(MZ__exp__4/4. - (aEW*cmath.pi*MZ__exp__2)/(Gf*sqrt__2))) 

###################################
## INFORMATION FOR SMINPUTS
###################################
Block sminputs 
    1 1.279000e+02 # aEWM1 
    2 1.166370e-05 # Gf 
    3 1.184000e-01 # aS 

###################################
## INFORMATION FOR YUKAWA
###################################
Block yukawa 
    1 5.040000e-03 # ymdo 
    2 2.550000e-03 # ymup 
    3 1.010000e-01 # yms 
    4 1.270000e+00 # ymc 
    5 4.700000e+00 # ymb 
    6 1.720000e+02 # ymt 
   11 5.110000e-04 # yme 
   13 1.056600e-01 # ymm 
   15 1.777000e+00 # ymtau 

###################################
## INFORMATION FOR DECAY
###################################
DECAY   6 1.508336e+00 # WT 
DECAY  23 2.495200e+00 # WZ 
DECAY  24 2.085000e+00 # WW 
DECAY  25 5.000000e-03 # wh 
DECAY 1000022 0.000000e+00 # ws0 
DECAY 1000011 2.000000e-16 # wHE
      5.000000e-01 2 -11 1000022 # br(~he -> e+ ~s0)
      5.000000e-01 2 -13 1000022 # br(~he -> mu+ ~s0)
## Dependent parameters, given by model restrictions.
## Those values should be edited following the 
## analytical expression. MG5 ignores those values 
## but they are important for interfacing the output of MG5
## to external program such as Pythia.
DECAY  1 0.000000e+00 # d : 0.0 
DECAY  2 0.000000e+00 # u : 0.0 
DECAY  3 0.000000e+00 # s : 0.0 
DECAY  4 0.000000e+00 # c : 0.0 
DECAY  5 0.000000e+00 # b : 0.0 
DECAY  11 0.000000e+00 # e- : 0.0 
DECAY  12 0.000000e+00 # ve : 0.0 
DECAY  13 0.000000e+00 # mu- : 0.0 
DECAY  14 0.000000e+00 # vm : 0.0 
DECAY  15 0.000000e+00 # ta- : 0.0 
DECAY  16 0.000000e+00 # vt : 0.0 
DECAY  21 0.000000e+00 # g : 0.0 
DECAY  22 0.000000e+00 # a : 0.0 
#===========================================================
# QUANTUM NUMBERS OF NEW STATE(S) (NON SM PDG CODE)
#===========================================================

Block QNUMBERS 1000022  # ~s0 
        1 0  # 3 times electric charge
        2 1  # number of spin states (2S+1)
        3 1  # colour rep (1: singlet, 3: triplet, 8: octet)
        4 0  # Particle/Antiparticle distinction (0=own anti)
Block QNUMBERS 1000011  # ~he 
        1 -3  # 3 times electric charge
        2 2  # number of spin states (2S+1)
        3 1  # colour rep (1: singlet, 3: triplet, 8: octet)
        4 1  # Particle/Antiparticle distinction (0=own anti)
</slha>
<MGGenerationInfo>
#  Number of Events        :       1000
#  Integrated weight (pb)  :       1.23595933e-08
</MGGenerationInfo>
</header>
<init>
2212 2212 6.500000e+03 6.500000e+03 0 0 247000 247000 -4 1
1.235959e-08 5.516739e-11 1.235959e-08 1
<generator name='MadGraph5_aMC@NLO' version='2.6.6'>please cite 1405.0301 </generator>
</init>
<event>
 8      1 +1.2359593e-08 5.11587500e+03 7.81860800e-03 7.81087700e-02
        1 -1    0    0  501    0 +0.0000000000e+00 +0.0000000000e+00 +3.9213825563e+03 3.9213825563e+03 5.0400000000e-03 0.0000e+00 1.0000e+00
       -1 -1    0    0    0  501 -0.0000000000e+00 -0.0000000000e+00 -1.6685553059e+03 1.6685553059e+03 5.0400000000e-03 0.0000e+00 -1.0000e+00
  1000011  2    1    2    0    0 -3.8571121543e+02 +9.0062759681e+01 +2.3833242018e+03 3.3015249277e+03 2.2500995877e+03 1.3374e+03 0.0000e+00
 -1000011  2    1    2    0    0 +3.8571121543e+02 -9.0062759681e+01 -1.3049695145e+02 2.2884129345e+03 2.2500933008e+03 4.0743e+02 0.0000e+00
       11  1    3    3    0    0 +2.8453122532e-02 +6.9403943390e-02 +1.8675159204e-01 2.0125333728e-01 5.1100000000e-04 0.0000e+00 1.0000e+00
  1000022  1    3    3    0    0 -3.8573966856e+02 +8.9993355737e+01 +2.3831374502e+03 3.3013236743e+03 2.2500000000e+03 0.0000e+00 0.0000e+00
      -11  1    4    4    0    0 +1.0743010354e-01 -2.7886367966e-02 -1.1740816784e-02 1.1161086023e-01 5.1100000000e-04 0.0000e+00 -1.0000e+00
  1000022  1    4    4    0    0 +3.8560378533e+02 -9.0034873313e+01 -1.3048521063e+02 2.2883013237e+03 2.2500000000e+03 0.0000e+00 0.0000e+00
<mgrwt>
<rscale>  0 0.51158748E+04</rscale>
<asrwt>0</asrwt>
<pdfrwt beam="1">  1        1 0.60328962E+00 0.51158748E+04</pdfrwt>
<pdfrwt beam="2">  1       -1 0.25670082E+00 0.51158748E+04</pdfrwt>
<totfact> 0.50520731E-03</totfact>
</mgrwt>
</event>
<event>
 8      1 +1.2359593e-08 4.68242600e+03 7.81860800e-03 7.87945500e-02
        2 -1    0    0  501    0 +0.0000000000e+00 +0.0000000000e+00 +3.1259347026e+03 3.1259347026e+03 2.5500000000e-03 0.0000e+00 1.0000e+00
       -2 -1    0    0    0  501 -0.0000000000e+00 -0.0000000000e+00 -1.7534846594e+03 1.7534846594e+03 2.5500000000e-03 0.0000e+00 -1.0000e+00
  1000011  2    1    2    0    0 +6.1138299099e+02 -1.9397528535e+02 +5.9963379584e+02 2.4153521626e+03 2.2500999550e+03 5.4818e+01 0.0000e+00
 -1000011  2    1    2    0    0 -6.1138299099e+02 +1.9397528535e+02 +7.7281624740e+02 2.4640671994e+03 2.2501036949e+03 1.3569e+03 0.0000e+00
       11  1    3    3    0    0 -4.6109917317e-02 -6.8928994093e-02 +5.8540853903e-02 1.0151168975e-01 5.1100000000e-04 0.0000e+00 1.0000e+00
  1000022  1    3    3    0    0 +6.1142910091e+02 -1.9390635636e+02 +5.9957525498e+02 2.4152506509e+03 2.2500000000e+03 0.0000e+00 0.0000e+00
      -11  1    4    4    0    0 +7.5536497853e-02 -2.0436916474e-02 +2.8279419422e-02 8.3207070381e-02 5.1100000000e-04 0.0000e+00 -1.0000e+00
  1000022  1    4    4    0    0 -6.1145852749e+02 +1.9399572227e+02 +7.7278796798e+02 2.4639839923e+03 2.2500000000e+03 0.0000e+00 0.0000e+00
<mgrwt>
<rscale>  0 0.46824261E+04</rscale>
<asrwt>0</asrwt>
<pdfrwt beam="1">  1        2 0.48091303E+00 0.46824261E+04</pdfrwt>
<pdfrwt beam="2">  1       -2 0.26976687E+00 0.46824261E+04</pdfrwt>
<totfact> 0.52540489E-02</totfact>
</mgrwt>
</event>
<event>
 8      1 +1.2359593e-08 5.13640900e+03 7.81860800e-03 7.80780300e-02
       -2 -1    0    0    0  501 -0.0000000000e+00 +0.0000000000e+00 +1.5929463750e+03 1.5929463750e+03 2.5500000000e-03 0.0000e+00 -1.0000e+00
        2 -1    0    0  501    0 +0.0000000000e+00 -0.0000000000e+00 -4.1405499965e+03 4.1405499965e+03 2.5500000000e-03 0.0000e+00 1.0000e+00
  1000011  2    1    2    0    0 +1.1805236861e+03 +2.2886294112e+02 -1.6024798695e+03 3.0127905704e+03 2.2501001911e+03 1.0636e+03 0.0000e+00
 -1000011  2    1    2    0    0 -1.1805236861e+03 -2.2886294112e+02 -9.4512375201e+02 2.7207058011e+03 2.2501037154e+03 1.2584e+03 0.0000e+00
       11  1    3    3    0    0 +5.6625820142e-02 -3.3181163527e-03 -1.8890747678e-01 1.9724043479e-01 5.1100000000e-04 0.0000e+00 1.0000e+00
  1000022  1    3    3    0    0 +1.1804670603e+03 +2.2886625923e+02 -1.6022909620e+03 3.0125933300e+03 2.2500000000e+03 0.0000e+00 0.0000e+00
      -11  1    4    4    0    0 -1.1764192321e-01 +5.3810843331e-02 -1.1228186469e-01 1.7129712981e-01 5.1100000000e-04 0.0000e+00 -1.0000e+00
  1000022  1    4    4    0    0 -1.1804060442e+03 -2.2891675196e+02 -9.4501147015e+02 2.7205345040e+03 2.2500000000e+03 0.0000e+00 0.0000e+00
<mgrwt>
<rscale>  0 0.51364089E+04</rscale>
<asrwt>0</asrwt>
<pdfrwt beam="1">  1        2 0.63700769E+00 0.51364089E+04</pdfrwt>
<pdfrwt beam="2">  1       -2 0.24506867E+00 0.51364089E+04</pdfrwt>
<totfact> 0.12905494E-02</totfact>
</mgrwt>
</event>
<event>
 8      1 +1.2359593e-08 4.80281400e+03 7.81860800e-03 7.85966600e-02
        2 -1    0    0  501    0 +0.0000000000e+00 +0.0000000000e+00 +2.5897983486e+03 2.5897983486e+03 2.5500000000e-03 0.0000e+00 1.0000e+00
       -2 -1    0    0    0  501 -0.0000000000e+00 -0.0000000000e+00 -2.2267195554e+03 2.2267195554e+03 2.5500000000e-03 0.0000e+00 -1.0000e+00
  1000011  2    1    2    0    0 +3.5291571929e+02 -2.6419264165e+02 -5.3425905399e+02 2.3543002853e+03 2.2500999622e+03 6.8338e+02 0.0000e+00
 -1000011  2    1    2    0    0 -3.5291571929e+02 +2.6419264165e+02 +8.9733784724e+02 2.4622176187e+03 2.2501006939e+03 3.7488e+02 0.0000e+00
       11  1    3    3    0    0 +9.9926281761e-02 +3.6074022234e-02 +9.8135309900e-04 1.0624415521e-01 5.1100000000e-04 0.0000e+00 1.0000e+00
  1000022  1    3    3    0    0 +3.5281579300e+02 -2.6422871568e+02 -5.3426003535e+02 2.3541940411e+03 2.2500000000e+03 0.0000e+00 0.0000e+00
      -11  1    4    4    0    0 -5.4097374423e-02 -8.0707622823e-02 +5.0637473177e-02 1.0956578202e-01 5.1100000000e-04 0.0000e+00 -1.0000e+00
  1000022  1    4    4    0    0 -3.5286162191e+02 +2.6427334928e+02 +8.9728720976e+02 2.4621080529e+03 2.2500000000e+03 0.0000e+00 0.0000e+00
<mgrwt>
<rscale>  0 0.48028136E+04</rscale>
<asrwt>0</asrwt>
<pdfrwt beam="1">  1        2 0.39843051E+00 0.48028136E+04</pdfrwt>
<pdfrwt beam="2">  1       -2 0.34257224E+00 0.48028136E+04</pdfrwt>
<totfact> 0.39532483E-02</totfact>
</mgrwt>
</event>
<event>
 8      1 +1.2359593e-08 4.78426800e+03 7.81860800e-03 7.86267600e-02
        2 -1    0    0  501    0 +0.0000000000e+00 +0.0000000000e+00 +3.6619311856e+03 3.6619311856e+03 2.5500000000e-03 0.0000e+00 1.0000e+00
       -2 -1    0    0    0  501 -0.0000000000e+00 -0.0000000000e+00 -1.5626467382e+03 1.5626467382e+03 2.5500000000e-03 0.0000e+00 -1.0000e+00
  1000011  2    1    2    0    0 -1.7705911798e+02 +7.9038179192e+02 +1.1124291077e+03 2.6375180335e+03 2.2500998976e+03 4.3289e+02 0.0000e+00
 -1000011  2    1    2    0    0 +1.7705911798e+02 -7.9038179192e+02 +9.8685533964e+02 2.5870598903e+03 2.2500982437e+03 7.0848e+02 0.0000e+00
       11  1    3    3    0    0 +1.7029271101e-02 +7.3776789342e-04 +1.4405034042e-01 1.4505620221e-01 5.1100000000e-04 0.0000e+00 1.0000e+00
  1000022  1    3    3    0    0 -1.7707614725e+02 +7.9038105415e+02 +1.1122850573e+03 2.6373729773e+03 2.2500000000e+03 0.0000e+00 0.0000e+00
      -11  1    4    4    0    0 -7.4865256415e-02 -1.8624595121e-02 -1.7876381864e-02 7.9192853538e-02 5.1100000000e-04 0.0000e+00 -1.0000e+00
  1000022  1    4    4    0    0 +1.7713398323e+02 -7.9036316732e+02 +9.8687321602e+02 2.5869806974e+03 2.2500000000e+03 0.0000e+00 0.0000e+00
<mgrwt>
<rscale>  0 0.47842679E+04</rscale>
<asrwt>0</asrwt>
<pdfrwt beam="1">  1        2 0.56337403E+00 0.47842679E+04</pdfrwt>
<pdfrwt beam="2">  1       -2 0.24040719E+00 0.47842679E+04</pdfrwt>
<totfact> 0.33866039E-02</totfact>
</mgrwt>
</event>
<event>
 8      1 +1.2359593e-08 5.84252100e+03 7.81860800e-03 7.71024000e-02
        2 -1    0    0  501    0 +0.0000000000e+00 +0.0000000000e+00 +3.3070710439e+03 3.3070710439e+03 2.5500000000e-03 0.0000e+00 1.0000e+00
       -2 -1    0    0    0  501 -0.0000000000e+00 -0.0000000000e+00 -2.5804595003e+03 2.5804595003e+03 2.5500000000e-03 0.0000e+00 -1.0000e+00
  1000011  2    1    2    0    0 +1.8532134539e+03 -4.0691341358e+01 +1.7533431053e+02 2.9205731494e+03 2.2500998889e+03 1.5596e+02 0.0000e+00
 -1000011  2    1    2    0    0 -1.8532134539e+03 +4.0691341358e+01 +5.5127723310e+02 2.9669573948e+03 2.2500830438e+03 6.9368e+02 0.0000e+00
       11  1    3    3    0    0 +5.2773816703e-02 +9.2884843524e-02 +2.9933293396e-02 1.1094562993e-01 5.1100000000e-04 0.0000e+00 1.0000e+00
  1000022  1    3    3    0    0 +1.8531606800e+03 -4.0784226202e+01 +1.7530437724e+02 2.9204622038e+03 2.2500000000e+03 0.0000e+00 0.0000e+00
      -11  1    4    4    0    0 -9.9373534671e-03 +5.0158306279e-02 -3.6844286612e-02 6.3026730069e-02 5.1100000000e-04 0.0000e+00 -1.0000e+00
  1000022  1    4    4    0    0 -1.8532035165e+03 +4.0641183052e+01 +5.5131407739e+02 2.9668943681e+03 2.2500000000e+03 0.0000e+00 0.0000e+00
<mgrwt>
<rscale>  0 0.58425210E+04</rscale>
<asrwt>0</asrwt>
<pdfrwt beam="1">  1        2 0.50878016E+00 0.58425210E+04</pdfrwt>
<pdfrwt beam="2">  1       -2 0.39699377E+00 0.58425210E+04</pdfrwt>
<totfact> 0.58286476E-03</totfact>
</mgrwt>
</event>
<event>
 8      1 +1.2359593e-08 5.18967100e+03 7.81860800e-03 7.79989700e-02
        2 -1    0    0  501    0 +0.0000000000e+00 +0.0000000000e+00 +2.4504511566e+03 2.4504511566e+03 2.5500000000e-03 0.0000e+00 -1.0000e+00
       -2 -1    0    0    0  501 -0.0000000000e+00 -0.0000000000e+00 -2.7477268212e+03 2.7477268212e+03 2.5500000000e-03 0.0000e+00 1.0000e+00
  1000011  2    1    2    0    0 -8.8293126332e+02 +6.3225359897e+02 +5.5313691389e+02 2.5589498588e+03 2.2501003767e+03 3.5638e+00 0.0000e+00
 -1000011  2    1    2    0    0 +8.8293126332e+02 -6.3225359897e+02 -8.5041257856e+02 2.6392281190e+03 2.2501136152e+03 2.0819e+02 0.0000e+00
       11  1    3    3    0    0 +7.1100620894e-03 +9.9610913121e-02 +7.9394120282e-02 1.2757967796e-01 5.1100000000e-04 0.0000e+00 1.0000e+00
  1000022  1    3    3    0    0 -8.8293837338e+02 +6.3215398805e+02 +5.5305751977e+02 2.5588222791e+03 2.2500000000e+03 0.0000e+00 0.0000e+00
      -11  1    4    4    0    0 -3.6386564238e-02 +4.2598813612e-03 +5.4878925833e-02 6.5985497348e-02 5.1100000000e-04 0.0000e+00 -1.0000e+00
  1000022  1    4    4    0    0 +8.8296764989e+02 -6.3225785885e+02 -8.5046745749e+02 2.6391621335e+03 2.2500000000e+03 0.0000e+00 0.0000e+00
<mgrwt>
<rscale>  0 0.51896707E+04</rscale>
<asrwt>0</asrwt>
<pdfrwt beam="1">  1        2 0.37699249E+00 0.51896707E+04</pdfrwt>
<pdfrwt beam="2">  1       -2 0.42272720E+00 0.51896707E+04</pdfrwt>
<totfact> 0.14051639E-02</totfact>
</mgrwt>
</event>
<event>
 8      1 +1.2359593e-08 4.78100200e+03 7.81860800e-03 7.86320700e-02
        2 -1    0    0  501    0 +0.0000000000e+00 +0.0000000000e+00 +1.2429943399e+03 1.2429943399e+03 2.5500000000e-03 0.0000e+00 1.0000e+00
       -2 -1    0    0    0  501 -0.0000000000e+00 -0.0000000000e+00 -4.5973624755e+03 4.5973624755e+03 2.5500000000e-03 0.0000e+00 -1.0000e+00
  1000011  2    1    2    0    0 -1.8595814843e+02 -7.8330991572e+02 -1.6061896871e+03 2.8794044091e+03 2.2501043494e+03 7.0512e+02 0.0000e+00
 -1000011  2    1    2    0    0 +1.8595814843e+02 +7.8330991572e+02 -1.7481784484e+03 2.9609524063e+03 2.2501014216e+03 6.6795e+02 0.0000e+00
       11  1    3    3    0    0 +6.0671198567e-02 +4.2245387312e-02 -8.9354604838e-02 1.1597488163e-01 5.1100000000e-04 0.0000e+00 1.0000e+00
  1000022  1    3    3    0    0 -1.8601881963e+02 -7.8335216110e+02 -1.6061003325e+03 2.8792884342e+03 2.2500000000e+03 0.0000e+00 0.0000e+00
      -11  1    4    4    0    0 -2.3749313024e-02 -1.4001796188e-02 -1.7005923181e-01 1.7228024607e-01 5.1100000000e-04 0.0000e+00 -1.0000e+00
  1000022  1    4    4    0    0 +1.8598189775e+02 +7.8332391751e+02 -1.7480083892e+03 2.9607801260e+03 2.2500000000e+03 0.0000e+00 0.0000e+00
<mgrwt>
<rscale>  0 0.47810022E+04</rscale>
<asrwt>0</asrwt>
<pdfrwt beam="1">  1        2 0.19122990E+00 0.47810022E+04</pdfrwt>
<pdfrwt beam="2">  1       -2 0.70728653E+00 0.47810022E+04</pdfrwt>
<totfact> 0.28509361E-03</totfact>
</mgrwt>
</event>
<event>
 8      1 +1.2359593e-08 4.91560300e+03 7.81860800e-03 7.84166000e-02
        2 -1    0    0  501    0 +0.0000000000e+00 +0.0000000000e+00 +4.1145291337e+03 4.1145291337e+03 2.5500000000e-03 0.0000e+00 1.0000e+00
       -2 -1    0    0    0  501 -0.0000000000e+00 -0.0000000000e+00 -1.4681600717e+03 1.4681600717e+03 2.5500000000e-03 0.0000e+00 -1.0000e+00
  1000011  2    1    2    0    0 +9.6103888313e+02 +2.3207897156e+02 +1.3445343191e+03 2.8014660846e+03 2.2501073983e+03 3.1895e+02 0.0000e+00
 -1000011  2    1    2    0    0 -9.6103888313e+02 -2.3207897156e+02 +1.3018347428e+03 2.7812231208e+03 2.2501048789e+03 3.1205e+02 0.0000e+00
       11  1    3    3    0    0 -4.8672904600e-02 -2.5063200569e-02 -1.9510562578e-02 5.8121754370e-02 5.1100000000e-04 0.0000e+00 1.0000e+00
  1000022  1    3    3    0    0 +9.6108755603e+02 +2.3210403476e+02 +1.3445538297e+03 2.8014079628e+03 2.2500000000e+03 0.0000e+00 0.0000e+00
      -11  1    4    4    0    0 -1.4650352106e-01 +3.2383562203e-02 +8.8460519889e-02 1.7417663818e-01 5.1100000000e-04 0.0000e+00 -1.0000e+00
  1000022  1    4    4    0    0 -9.6089237961e+02 -2.3211135513e+02 +1.3017462823e+03 2.7810489442e+03 2.2500000000e+03 0.0000e+00 0.0000e+00
<mgrwt>
<rscale>  0 0.49156027E+04</rscale>
<asrwt>0</asrwt>
<pdfrwt beam="1">  1        2 0.63300447E+00 0.49156027E+04</pdfrwt>
<pdfrwt beam="2">  1       -2 0.22587078E+00 0.49156027E+04</pdfrwt>
<totfact> 0.18201567E-02</totfact>
</mgrwt>
</event>
<event>
 8      1 +1.2359593e-08 5.82216500e+03 7.81860800e-03 7.71285100e-02
        2 -1    0    0  501    0 +0.0000000000e+00 +0.0000000000e+00 +3.4537395911e+03 3.4537395911e+03 2.5500000000e-03 0.0000e+00 1.0000e+00
       -2 -1    0    0    0  501 -0.0000000000e+00 -0.0000000000e+00 -2.4536888357e+03 2.4536888357e+03 2.5500000000e-03 0.0000e+00 -1.0000e+00
  1000011  2    1    2    0    0 +3.8383221714e+02 +4.0911035551e+02 +2.2855574926e+03 3.2559828518e+03 2.2501006257e+03 3.7831e+02 0.0000e+00
 -1000011  2    1    2    0    0 -3.8383221714e+02 -4.0911035551e+02 -1.2855067371e+03 2.6514455750e+03 2.2500972450e+03 4.7195e+02 0.0000e+00
       11  1    3    3    0    0 -6.8739915482e-02 -8.6173502194e-03 +1.5202241772e-01 1.6706439247e-01 5.1100000000e-04 0.0000e+00 1.0000e+00
  1000022  1    3    3    0    0 +3.8390095706e+02 +4.0911897286e+02 +2.2854054702e+03 3.2558157874e+03 2.2500000000e+03 0.0000e+00 0.0000e+00
      -11  1    4    4    0    0 +3.0169270928e-03 -8.1568253958e-02 -1.4129187124e-01 1.6317516920e-01 5.1100000000e-04 0.0000e+00 -1.0000e+00
  1000022  1    4    4    0    0 -3.8383523407e+02 -4.0902878725e+02 -1.2853654452e+03 2.6512823998e+03 2.2500000000e+03 0.0000e+00 0.0000e+00
<mgrwt>
<rscale>  0 0.58221653E+04</rscale>
<asrwt>0</asrwt>
<pdfrwt beam="1">  1        2 0.53134455E+00 0.58221653E+04</pdfrwt>
<pdfrwt beam="2">  1       -2 0.37749059E+00 0.58221653E+04</pdfrwt>
<totfact> 0.62010906E-03</totfact>
</mgrwt>
</event>
<event>
 8      1 +1.2359593e-08 4.84766100e+03 7.81860800e-03 7.85244600e-02
       -1 -1    0    0    0  501 -0.0000000000e+00 +0.0000000000e+00 +2.2847296616e+03 2.2847296616e+03 5.0400000000e-03 0.0000e+00 1.0000e+00
        1 -1    0    0  501    0 +0.0000000000e+00 -0.0000000000e+00 -2.5714003597e+03 2.5714003597e+03 5.0400000000e-03 0.0000e+00 -1.0000e+00
  1000011  2    1    2    0    0 +4.2766786776e+01 +3.1175326968e+02 +7.0252557592e+02 2.3781322526e+03 2.2501003815e+03 2.9046e+03 0.0000e+00
 -1000011  2    1    2    0    0 -4.2766786776e+01 -3.1175326968e+02 -9.8919627399e+02 2.4779977688e+03 2.2500987921e+03 1.7976e+02 0.0000e+00
       11  1    3    3    0    0 -3.3302906363e-02 +5.0252862571e-02 +1.2352876676e-01 1.3745563110e-01 5.1100000000e-04 0.0000e+00 1.0000e+00
  1000022  1    3    3    0    0 +4.2800089682e+01 +3.1170301682e+02 +7.0240204715e+02 2.3779947969e+03 2.2500000000e+03 0.0000e+00 0.0000e+00
      -11  1    4    4    0    0 -8.6023168363e-02 +3.8314983621e-02 -3.8502736567e-02 1.0173861192e-01 5.1100000000e-04 0.0000e+00 -1.0000e+00
  1000022  1    4    4    0    0 -4.2680763608e+01 -3.1179158466e+02 -9.8915777126e+02 2.4778960302e+03 2.2500000000e+03 0.0000e+00 0.0000e+00
<mgrwt>
<rscale>  0 0.48476612E+04</rscale>
<asrwt>0</asrwt>
<pdfrwt beam="1">  1        1 0.39560006E+00 0.48476612E+04</pdfrwt>
<pdfrwt beam="2">  1       -1 0.35149687E+00 0.48476612E+04</pdfrwt>
<totfact> 0.13408735E-02</totfact>
</mgrwt>
</event>
<event>
 8      1 +1.2359593e-08 5.75799300e+03 7.81860800e-03 7.72115400e-02
        2 -1    0    0  501    0 +0.0000000000e+00 +0.0000000000e+00 +3.2427081755e+03 3.2427081755e+03 2.5500000000e-03 0.0000e+00 1.0000e+00
       -2 -1    0    0    0  501 -0.0000000000e+00 -0.0000000000e+00 -2.5560802093e+03 2.5560802093e+03 2.5500000000e-03 0.0000e+00 -1.0000e+00
  1000011  2    1    2    0    0 -1.5843699212e+03 +7.8896311655e+02 +3.6217796841e+01 2.8630310501e+03 2.2500987130e+03 6.9823e+02 0.0000e+00
 -1000011  2    1    2    0    0 +1.5843699212e+03 -7.8896311655e+02 +6.5041016933e+02 2.9357573347e+03 2.2500993075e+03 2.8812e+03 0.0000e+00
       11  1    3    3    0    0 -1.5407889055e-01 -2.1541885418e-02 +2.2464227546e-02 1.5719179228e-01 5.1100000000e-04 0.0000e+00 1.0000e+00
  1000022  1    3    3    0    0 -1.5842158423e+03 +7.8898465844e+02 +3.6195332613e+01 2.8628738583e+03 2.2500000000e+03 0.0000e+00 0.0000e+00
      -11  1    4    4    0    0 +1.2027368343e-01 -1.1248217200e-01 -2.2665557618e-02 1.6622871626e-01 5.1100000000e-04 0.0000e+00 -1.0000e+00
  1000022  1    4    4    0    0 +1.5842496475e+03 -7.8885063438e+02 +6.5043283489e+02 2.9355911060e+03 2.2500000000e+03 0.0000e+00 0.0000e+00
<mgrwt>
<rscale>  0 0.57579935E+04</rscale>
<asrwt>0</asrwt>
<pdfrwt beam="1">  1        2 0.49887818E+00 0.57579935E+04</pdfrwt>
<pdfrwt beam="2">  1       -2 0.39324311E+00 0.57579935E+04</pdfrwt>
<totfact> 0.68490344E-03</totfact>
</mgrwt>
</event>
<event>
 8      1 +1.2359593e-08 4.87761200e+03 7.81860800e-03 7.84766900e-02
       -2 -1    0    0    0  501 -0.0000000000e+00 +0.0000000000e+00 +1.5499916939e+03 1.5499916939e+03 2.5500000000e-03 0.0000e+00 -1.0000e+00
        2 -1    0    0  501    0 +0.0000000000e+00 -0.0000000000e+00 -3.8372950638e+03 3.8372950638e+03 2.5500000000e-03 0.0000e+00 1.0000e+00
  1000011  2    1    2    0    0 -8.0855652376e+02 -4.1676527478e+02 -8.7906929869e+02 2.5813101767e+03 2.2500983201e+03 1.5964e+02 0.0000e+00
 -1000011  2    1    2    0    0 +8.0855652376e+02 +4.1676527478e+02 -1.4082340712e+03 2.8059765810e+03 2.2500943153e+03 4.3503e+02 0.0000e+00
       11  1    3    3    0    0 +1.8238870195e-02 -7.6636505200e-02 -9.7997359162e-02 1.2573604709e-01 5.1100000000e-04 0.0000e+00 1.0000e+00
  1000022  1    3    3    0    0 -8.0857476263e+02 -4.1668863827e+02 -8.7897130133e+02 2.5811844406e+03 2.2500000000e+03 0.0000e+00 0.0000e+00
      -11  1    4    4    0    0 -1.8196029991e-02 -1.2382356574e-02 +4.2034636820e-02 4.7450923065e-02 5.1100000000e-04 0.0000e+00 -1.0000e+00
  1000022  1    4    4    0    0 +8.0857471979e+02 +4.1677765714e+02 -1.4082761058e+03 2.8059291301e+03 2.2500000000e+03 0.0000e+00 0.0000e+00
<mgrwt>
<rscale>  0 0.48776123E+04</rscale>
<asrwt>0</asrwt>
<pdfrwt beam="1">  1        2 0.59035308E+00 0.48776123E+04</pdfrwt>
<pdfrwt beam="2">  1       -2 0.23846026E+00 0.48776123E+04</pdfrwt>
<totfact> 0.25508298E-02</totfact>
</mgrwt>
</event>
<event>
 8      1 +1.2359593e-08 5.05891400e+03 7.81860800e-03 7.81948300e-02
       -2 -1    0    0    0  501 -0.0000000000e+00 +0.0000000000e+00 +2.3186603622e+03 2.3186603622e+03 2.5500000000e-03 0.0000e+00 -1.0000e+00
        2 -1    0    0  501    0 +0.0000000000e+00 -0.0000000000e+00 -2.7594180461e+03 2.7594180461e+03 2.5500000000e-03 0.0000e+00 1.0000e+00
  1000011  2    1    2    0    0 +1.0363597259e+03 +4.2259435381e+02 +6.8059164884e+01 2.5140057361e+03 2.2501034025e+03 1.1598e+03 0.0000e+00
 -1000011  2    1    2    0    0 -1.0363597259e+03 -4.2259435381e+02 -5.0881684879e+02 2.5640726722e+03 2.2500992452e+03 1.4115e+02 0.0000e+00
       11  1    3    3    0    0 +8.4157313736e-02 +7.0878554332e-02 -8.1532840447e-02 1.3694556530e-01 5.1100000000e-04 0.0000e+00 1.0000e+00
  1000022  1    3    3    0    0 +1.0362755686e+03 +4.2252347526e+02 +6.8140697724e+01 2.5138687905e+03 2.2500000000e+03 0.0000e+00 0.0000e+00
      -11  1    4    4    0    0 +3.5442114586e-02 -4.8333185255e-02 -7.4323405414e-02 9.5480204526e-02 5.1100000000e-04 0.0000e+00 -1.0000e+00
  1000022  1    4    4    0    0 -1.0363951680e+03 -4.2254602062e+02 -5.0874252539e+02 2.5639771920e+03 2.2500000000e+03 0.0000e+00 0.0000e+00
<mgrwt>
<rscale>  0 0.50589142E+04</rscale>
<asrwt>0</asrwt>
<pdfrwt beam="1">  1        2 0.42452585E+00 0.50589142E+04</pdfrwt>
<pdfrwt beam="2">  1       -2 0.35671698E+00 0.50589142E+04</pdfrwt>
<totfact> 0.25013157E-02</totfact>
</mgrwt>
</event>
<event>
 8      1 +1.2359593e-08 5.16677600e+03 7.81860800e-03 7.80328300e-02
        2 -1    0    0  501    0 +0.0000000000e+00 +0.0000000000e+00 +2.2840795706e+03 2.2840795706e+03 2.5500000000e-03 0.0000e+00 1.0000e+00
       -2 -1    0    0    0  501 -0.0000000000e+00 -0.0000000000e+00 -2.9219181872e+03 2.9219181872e+03 2.5500000000e-03 0.0000e+00 -1.0000e+00
  1000011  2    1    2    0    0 +1.0973302171e+03 -5.5828258939e+02 -6.2970264407e+02 2.6410755523e+03 2.2500981307e+03 4.0239e+02 0.0000e+00
 -1000011  2    1    2    0    0 -1.0973302171e+03 +5.5828258939e+02 -8.1359725116e+00 2.5649222055e+03 2.2500992581e+03 3.1725e+03 0.0000e+00
       11  1    3    3    0    0 -3.5699227471e-02 +3.5963190597e-02 +2.3049646692e-02 5.5671652573e-02 5.1100000000e-04 0.0000e+00 1.0000e+00
  1000022  1    3    3    0    0 +1.0973659163e+03 -5.5831855258e+02 -6.2972569372e+02 2.6410198806e+03 2.2500000000e+03 0.0000e+00 0.0000e+00
      -11  1    4    4    0    0 -1.0370669008e-01 +4.4369789617e-02 -8.5212448299e-02 1.4136894296e-01 5.1100000000e-04 0.0000e+00 -1.0000e+00
  1000022  1    4    4    0    0 -1.0972265104e+03 +5.5823821960e+02 -8.0507600633e+00 2.5647808366e+03 2.2500000000e+03 0.0000e+00 0.0000e+00
<mgrwt>
<rscale>  0 0.51667760E+04</rscale>
<asrwt>0</asrwt>
<pdfrwt beam="1">  1        2 0.35139686E+00 0.51667760E+04</pdfrwt>
<pdfrwt beam="2">  1       -2 0.44952588E+00 0.51667760E+04</pdfrwt>
<totfact> 0.11663610E-02</totfact>
</mgrwt>
</event>
<event>
 8      1 +1.2359593e-08 6.79448600e+03 7.81860800e-03 7.59901000e-02
       -2 -1    0    0    0  501 -0.0000000000e+00 +0.0000000000e+00 +2.5027376202e+03 2.5027376202e+03 2.5500000000e-03 0.0000e+00 -1.0000e+00
        2 -1    0    0  501    0 +0.0000000000e+00 -0.0000000000e+00 -4.6114535637e+03 4.6114535637e+03 2.5500000000e-03 0.0000e+00 1.0000e+00
  1000011  2    1    2    0    0 -1.2354865586e+03 -2.0877484184e+03 -2.4790927206e+02 3.3180598945e+03 2.2500982115e+03 2.5207e+03 0.0000e+00
 -1000011  2    1    2    0    0 +1.2354865586e+03 +2.0877484184e+03 -1.8608066715e+03 3.7961312894e+03 2.2500868433e+03 4.9225e+02 0.0000e+00
       11  1    3    3    0    0 +2.7940263303e-02 +2.7343535126e-02 -3.4253049924e-03 3.9246916335e-02 5.1100000000e-04 0.0000e+00 1.0000e+00
  1000022  1    3    3    0    0 -1.2355144989e+03 -2.0877757620e+03 -2.4790584675e+02 3.3180206476e+03 2.2500000000e+03 0.0000e+00 0.0000e+00
      -11  1    4    4    0    0 +5.5013015096e-02 +1.9261671171e-01 -9.2380770645e-02 2.2059487020e-01 5.1100000000e-04 0.0000e+00 -1.0000e+00
  1000022  1    4    4    0    0 +1.2354315456e+03 +2.0875558017e+03 -1.8607142907e+03 3.7959106945e+03 2.2500000000e+03 0.0000e+00 0.0000e+00
<mgrwt>
<rscale>  0 0.67944855E+04</rscale>
<asrwt>0</asrwt>
<pdfrwt beam="1">  1        2 0.70945439E+00 0.67944855E+04</pdfrwt>
<pdfrwt beam="2">  1       -2 0.38503656E+00 0.67944855E+04</pdfrwt>
<totfact> 0.55167493E-04</totfact>
</mgrwt>
</event>
<event>
 8      1 +1.2359593e-08 5.15251100e+03 7.81860800e-03 7.80540200e-02
       -2 -1    0    0    0  501 -0.0000000000e+00 +0.0000000000e+00 +2.0847034441e+03 2.0847034441e+03 2.5500000000e-03 0.0000e+00 -1.0000e+00
        2 -1    0    0  501    0 +0.0000000000e+00 -0.0000000000e+00 -3.1837110721e+03 3.1837110721e+03 2.5500000000e-03 0.0000e+00 1.0000e+00
  1000011  2    1    2    0    0 +6.0938724675e+02 -8.3467982308e+01 +5.6863342816e+02 2.4009630768e+03 2.2501022199e+03 9.1187e+02 0.0000e+00
 -1000011  2    1    2    0    0 -6.0938724675e+02 +8.3467982308e+01 -1.6676410561e+03 2.8674514394e+03 2.2500958524e+03 2.9357e+02 0.0000e+00
       11  1    3    3    0    0 -3.5784877361e-02 +6.4211317537e-02 -2.6607482830e-02 7.8178446791e-02 5.1100000000e-04 0.0000e+00 1.0000e+00
  1000022  1    3    3    0    0 +6.0942303162e+02 -8.3532193625e+01 +5.6866003565e+02 2.4008848983e+03 2.2500000000e+03 0.0000e+00 0.0000e+00
      -11  1    4    4    0    0 -9.6261008533e-02 +2.3716762389e-02 -4.9951925641e-03 9.9266707646e-02 5.1100000000e-04 0.0000e+00 -1.0000e+00
  1000022  1    4    4    0    0 -6.0929098574e+02 +8.3444265545e+01 -1.6676360609e+03 2.8673521727e+03 2.2500000000e+03 0.0000e+00 0.0000e+00
<mgrwt>
<rscale>  0 0.51525114E+04</rscale>
<asrwt>0</asrwt>
<pdfrwt beam="1">  1        2 0.48980170E+00 0.51525114E+04</pdfrwt>
<pdfrwt beam="2">  1       -2 0.32072361E+00 0.51525114E+04</pdfrwt>
<totfact> 0.22631751E-02</totfact>
</mgrwt>
</event>
<event>
 8      1 +1.2359593e-08 4.60976500e+03 7.81860800e-03 7.89169700e-02
       -2 -1    0    0    0  501 -0.0000000000e+00 +0.0000000000e+00 +1.9778891674e+03 1.9778891674e+03 2.5500000000e-03 0.0000e+00 -1.0000e+00
        2 -1    0    0  501    0 +0.0000000000e+00 -0.0000000000e+00 -2.6859362550e+03 2.6859362550e+03 2.5500000000e-03 0.0000e+00 1.0000e+00
  1000011  2    1    2    0    0 +2.1034133248e+02 +3.9469202397e+01 -8.1067473616e+02 2.4012419404e+03 2.2501040052e+03 6.7897e+02 0.0000e+00
 -1000011  2    1    2    0    0 -2.1034133248e+02 -3.9469202397e+01 +1.0262764856e+02 2.2625834819e+03 2.2501000610e+03 1.4431e+02 0.0000e+00
       11  1    3    3    0    0 -3.7682491153e-02 +4.1203983860e-02 -1.2522386891e-01 1.3710950580e-01 5.1100000000e-04 0.0000e+00 1.0000e+00
  1000022  1    3    3    0    0 +2.1037901497e+02 +3.9427998414e+01 -8.1054951229e+02 2.4011048309e+03 2.2500000000e+03 0.0000e+00 0.0000e+00
      -11  1    4    4    0    0 -5.8347259340e-02 -8.3027106400e-02 -2.7473807425e-02 1.0513312492e-01 5.1100000000e-04 0.0000e+00 -1.0000e+00
  1000022  1    4    4    0    0 -2.1028298522e+02 -3.9386175291e+01 +1.0265512236e+02 2.2624783488e+03 2.2500000000e+03 0.0000e+00 0.0000e+00
<mgrwt>
<rscale>  0 0.46097654E+04</rscale>
<asrwt>0</asrwt>
<pdfrwt beam="1">  1        2 0.41322096E+00 0.46097654E+04</pdfrwt>
<pdfrwt beam="2">  1       -2 0.30429064E+00 0.46097654E+04</pdfrwt>
<totfact> 0.60819487E-02</totfact>
</mgrwt>
</event>
<event>
 8      1 +1.2359593e-08 5.39341800e+03 7.81860800e-03 7.77052800e-02
        2 -1    0    0  501    0 +0.0000000000e+00 +0.0000000000e+00 +3.7087124895e+03 3.7087124895e+03 2.5500000000e-03 0.0000e+00 1.0000e+00
       -2 -1    0    0    0  501 -0.0000000000e+00 -0.0000000000e+00 -1.9608525936e+03 1.9608525936e+03 2.5500000000e-03 0.0000e+00 -1.0000e+00
  1000011  2    1    2    0    0 +4.3985939409e+02 +9.3341946481e+02 -2.5067871171e+02 2.4880787745e+03 2.2500995507e+03 1.7443e+03 0.0000e+00
 -1000011  2    1    2    0    0 -4.3985939409e+02 -9.3341946481e+02 +1.9985386076e+03 3.1814863086e+03 2.2501000826e+03 8.8684e+02 0.0000e+00
       11  1    3    3    0    0 +1.1938291299e-01 +4.6989326106e-02 +3.9740913178e-03 1.2836016026e-01 5.1100000000e-04 0.0000e+00 1.0000e+00
  1000022  1    3    3    0    0 +4.3974001118e+02 +9.3337247548e+02 -2.5068268580e+02 2.4879504144e+03 2.2500000000e+03 0.0000e+00 0.0000e+00
      -11  1    4    4    0    0 -6.7041763934e-02 -7.2313981588e-02 -4.0923810811e-03 9.8696092043e-02 5.1100000000e-04 0.0000e+00 -1.0000e+00
  1000022  1    4    4    0    0 -4.3979235233e+02 -9.3334715083e+02 +1.9985427000e+03 3.1813876125e+03 2.2500000000e+03 0.0000e+00 0.0000e+00
<mgrwt>
<rscale>  0 0.53934177E+04</rscale>
<asrwt>0</asrwt>
<pdfrwt beam="1">  1        2 0.57057115E+00 0.53934177E+04</pdfrwt>
<pdfrwt beam="2">  1       -2 0.30166963E+00 0.53934177E+04</pdfrwt>
<totfact> 0.12560514E-02</totfact>
</mgrwt>
</event>
<event>
 8      1 +1.2359593e-08 4.78796300e+03 7.81860800e-03 7.86207500e-02
        2 -1    0    0  501    0 +0.0000000000e+00 +0.0000000000e+00 +4.0923605350e+03 4.0923605350e+03 2.5500000000e-03 0.0000e+00 1.0000e+00
       -2 -1    0    0    0  501 -0.0000000000e+00 -0.0000000000e+00 -1.4004502982e+03 1.4004502982e+03 2.5500000000e-03 0.0000e+00 -1.0000e+00
  1000011  2    1    2    0    0 +2.6278173640e+02 -4.2296401430e+02 +6.0222295094e+02 2.3819151459e+03 2.2500876608e+03 2.1873e+03 0.0000e+00
 -1000011  2    1    2    0    0 -2.6278173640e+02 +4.2296401430e+02 +2.0896872859e+03 3.1108956873e+03 2.2500947150e+03 4.6125e+02 0.0000e+00
       11  1    3    3    0    0 +4.7385093434e-02 -6.1213037715e-02 -4.2293170131e-02 8.8211995077e-02 5.1100000000e-04 0.0000e+00 1.0000e+00
  1000022  1    3    3    0    0 +2.6273435131e+02 -4.2290280126e+02 +6.0226524411e+02 2.3818269339e+03 2.2500000000e+03 0.0000e+00 0.0000e+00
      -11  1    4    4    0    0 -4.7082461893e-02 +5.0116463843e-02 -1.3673384483e-02 7.0111626333e-02 5.1100000000e-04 0.0000e+00 -1.0000e+00
  1000022  1    4    4    0    0 -2.6273465394e+02 +4.2291389784e+02 +2.0897009592e+03 3.1108255757e+03 2.2500000000e+03 0.0000e+00 0.0000e+00
<mgrwt>
<rscale>  0 0.47879630E+04</rscale>
<asrwt>0</asrwt>
<pdfrwt beam="1">  1        2 0.62959392E+00 0.47879630E+04</pdfrwt>
<pdfrwt beam="2">  1       -2 0.21545389E+00 0.47879630E+04</pdfrwt>
<totfact> 0.22347090E-02</totfact>
</mgrwt>
</event>
<event>
 8      1 +1.2359593e-08 4.81789300e+03 7.81860800e-03 7.85723000e-02
        1 -1    0    0  501    0 +0.0000000000e+00 +0.0000000000e+00 +1.1656430100e+03 1.1656430100e+03 5.0400000000e-03 0.0000e+00 1.0000e+00
       -1 -1    0    0    0  501 -0.0000000000e+00 -0.0000000000e+00 -4.9783877315e+03 4.9783877315e+03 5.0400000000e-03 0.0000e+00 -1.0000e+00
  1000011  2    1    2    0    0 +3.4559115610e+02 +3.4575694779e+02 -2.8091014749e+03 3.6322149031e+03 2.2501006404e+03 1.2531e+03 0.0000e+00
 -1000011  2    1    2    0    0 -3.4559115610e+02 -3.4575694779e+02 -1.0036432466e+03 2.5118158384e+03 2.2500973146e+03 2.2532e+02 0.0000e+00
       11  1    3    3    0    0 +7.1064657955e-03 -8.6175288444e-02 -1.0479446448e-01 1.3586325094e-01 5.1100000000e-04 0.0000e+00 1.0000e+00
  1000022  1    3    3    0    0 +3.4558404964e+02 +3.4584312308e+02 -2.8089966804e+03 3.6320790399e+03 2.2500000000e+03 0.0000e+00 0.0000e+00
      -11  1    4    4    0    0 -4.4286596791e-02 +4.4628740057e-02 -1.1916998860e-01 1.3473965250e-01 5.1100000000e-04 0.0000e+00 -1.0000e+00
  1000022  1    4    4    0    0 -3.4554686951e+02 -3.4580157653e+02 -1.0035240766e+03 2.5116810987e+03 2.2500000000e+03 0.0000e+00 0.0000e+00
<mgrwt>
<rscale>  0 0.48178928E+04</rscale>
<asrwt>0</asrwt>
<pdfrwt beam="1">  1        1 0.17932970E+00 0.48178928E+04</pdfrwt>
<pdfrwt beam="2">  1       -1 0.76590579E+00 0.48178928E+04</pdfrwt>
<totfact> 0.89445092E-04</totfact>
</mgrwt>
</event>
<event>
 8      1 +1.2359593e-08 5.09414300e+03 7.81860800e-03 7.81414700e-02
        2 -1    0    0  501    0 +0.0000000000e+00 +0.0000000000e+00 +3.0191939899e+03 3.0191939899e+03 2.5500000000e-03 0.0000e+00 1.0000e+00
       -2 -1    0    0    0  501 -0.0000000000e+00 -0.0000000000e+00 -2.1487766340e+03 2.1487766340e+03 2.5500000000e-03 0.0000e+00 -1.0000e+00
  1000011  2    1    2    0    0 -6.9445870302e+02 +9.6730301785e+02 +3.5242804204e+02 2.5700434362e+03 2.2501043799e+03 5.1920e+02 0.0000e+00
 -1000011  2    1    2    0    0 +6.9445870302e+02 -9.6730301785e+02 +5.1798931387e+02 2.5979271877e+03 2.2501032698e+03 1.8255e+03 0.0000e+00
       11  1    3    3    0    0 -1.0073411200e-01 +1.2426646921e-01 +7.1349022060e-02 1.7515838650e-01 5.1100000000e-04 0.0000e+00 1.0000e+00
  1000022  1    3    3    0    0 -6.9435796890e+02 +9.6717875138e+02 +3.5235669302e+02 2.5698682778e+03 2.2500000000e+03 0.0000e+00 0.0000e+00
      -11  1    4    4    0    0 +7.8102752616e-02 +4.2695457965e-02 -1.8048107649e-02 9.0823659379e-02 5.1100000000e-04 0.0000e+00 -1.0000e+00
  1000022  1    4    4    0    0 +6.9438060026e+02 -9.6734571330e+02 +5.1800736198e+02 2.5978363640e+03 2.2500000000e+03 0.0000e+00 0.0000e+00
<mgrwt>
<rscale>  0 0.50941431E+04</rscale>
<asrwt>0</asrwt>
<pdfrwt beam="1">  1        2 0.46449138E+00 0.50941431E+04</pdfrwt>
<pdfrwt beam="2">  1       -2 0.33058102E+00 0.50941431E+04</pdfrwt>
<totfact> 0.25179594E-02</totfact>
</mgrwt>
</event>
<event>
 8      1 +1.2359593e-08 5.18757800e+03 7.81860800e-03 7.80020600e-02
        2 -1    0    0  501    0 +0.0000000000e+00 +0.0000000000e+00 +3.4964958583e+03 3.4964958583e+03 2.5500000000e-03 0.0000e+00 1.0000e+00
       -2 -1    0    0    0  501 -0.0000000000e+00 -0.0000000000e+00 -1.9241378893e+03 1.9241378893e+03 2.5500000000e-03 0.0000e+00 -1.0000e+00
  1000011  2    1    2    0    0 -9.9502357820e+02 -3.2325851181e+02 -2.8838474305e+00 2.4814372179e+03 2.2501009674e+03 3.2546e+02 0.0000e+00
 -1000011  2    1    2    0    0 +9.9502357820e+02 +3.2325851181e+02 +1.5752418164e+03 2.9391965296e+03 2.2500936587e+03 5.9859e+01 0.0000e+00
       11  1    3    3    0    0 -8.0401749499e-02 -1.3603551767e-02 +9.5335784130e-02 1.2545385741e-01 5.1100000000e-04 0.0000e+00 1.0000e+00
  1000022  1    3    3    0    0 -9.9494317645e+02 -3.2324490826e+02 -2.9791832147e+00 2.4813117641e+03 2.2500000000e+03 0.0000e+00 0.0000e+00
      -11  1    4    4    0    0 +1.2882202218e-01 +5.9550011108e-02 +1.2279223566e-01 1.8766862018e-01 5.1100000000e-04 0.0000e+00 -1.0000e+00
  1000022  1    4    4    0    0 +9.9489475618e+02 +3.2319896180e+02 +1.5751190242e+03 2.9390088610e+03 2.2500000000e+03 0.0000e+00 0.0000e+00
<mgrwt>
<rscale>  0 0.51875775E+04</rscale>
<asrwt>0</asrwt>
<pdfrwt beam="1">  1        2 0.53792243E+00 0.51875775E+04</pdfrwt>
<pdfrwt beam="2">  1       -2 0.29602122E+00 0.51875775E+04</pdfrwt>
<totfact> 0.19674763E-02</totfact>
</mgrwt>
</event>
<event>
 8      1 +1.2359593e-08 4.61589600e+03 7.81860800e-03 7.89065500e-02
       -2 -1    0    0    0  501 -0.0000000000e+00 +0.0000000000e+00 +1.4938146233e+03 1.4938146233e+03 2.5500000000e-03 0.0000e+00 -1.0000e+00
        2 -1    0    0  501    0 +0.0000000000e+00 -0.0000000000e+00 -3.5657858548e+03 3.5657858548e+03 2.5500000000e-03 0.0000e+00 1.0000e+00
  1000011  2    1    2    0    0 -2.9343180883e+02 -4.1068271713e+02 -1.1395049726e+03 2.5721916003e+03 2.2500967813e+03 2.5929e+03 0.0000e+00
 -1000011  2    1    2    0    0 +2.9343180883e+02 +4.1068271713e+02 -9.3246625891e+02 2.4874088778e+03 2.2500993491e+03 6.1234e+02 0.0000e+00
       11  1    3    3    0    0 +5.7698784345e-02 +5.1910820693e-02 -4.5141535788e-02 8.9788095606e-02 5.1100000000e-04 0.0000e+00 1.0000e+00
  1000022  1    3    3    0    0 -2.9348950762e+02 -4.1073462795e+02 -1.1394598311e+03 2.5721018122e+03 2.2500000000e+03 0.0000e+00 0.0000e+00
      -11  1    4    4    0    0 -2.6307585056e-02 +1.0992167762e-01 -5.1818192640e-02 1.2433925518e-01 5.1100000000e-04 0.0000e+00 -1.0000e+00
  1000022  1    4    4    0    0 +2.9345811642e+02 +4.1057279545e+02 -9.3241444072e+02 2.4872845386e+03 2.2500000000e+03 0.0000e+00 0.0000e+00
<mgrwt>
<rscale>  0 0.46158956E+04</rscale>
<asrwt>0</asrwt>
<pdfrwt beam="1">  1        2 0.54858244E+00 0.46158956E+04</pdfrwt>
<pdfrwt beam="2">  1       -2 0.22981763E+00 0.46158956E+04</pdfrwt>
<totfact> 0.46901576E-02</totfact>
</mgrwt>
</event>
<event>
 8      1 +1.2359593e-08 6.08597900e+03 7.81860800e-03 7.67983200e-02
       -2 -1    0    0    0  501 -0.0000000000e+00 +0.0000000000e+00 +2.2935038331e+03 2.2935038331e+03 2.5500000000e-03 0.0000e+00 -1.0000e+00
        2 -1    0    0  501    0 +0.0000000000e+00 -0.0000000000e+00 -4.0373974105e+03 4.0373974105e+03 2.5500000000e-03 0.0000e+00 1.0000e+00
  1000011  2    1    2    0    0 -1.2432041648e+03 +1.1436635660e+02 +8.1767389290e+02 2.7000323703e+03 2.2500995415e+03 4.4468e+02 0.0000e+00
 -1000011  2    1    2    0    0 +1.2432041648e+03 -1.1436635660e+02 -2.5615674703e+03 3.6308688733e+03 2.2500988003e+03 4.6670e+01 0.0000e+00
       11  1    3    3    0    0 -4.0814468910e-03 -1.9260974491e-02 -6.2148413040e-02 6.5194550653e-02 5.1100000000e-04 0.0000e+00 1.0000e+00
  1000022  1    3    3    0    0 -1.2432000834e+03 +1.1438561757e+02 +8.1773604131e+02 2.6999671757e+03 2.2500000000e+03 0.0000e+00 0.0000e+00
      -11  1    4    4    0    0 +3.2853010436e-02 -1.6852538085e-02 +3.3146575335e-02 4.9621410691e-02 5.1100000000e-04 0.0000e+00 -1.0000e+00
  1000022  1    4    4    0    0 +1.2431713118e+03 -1.1434950406e+02 -2.5616006169e+03 3.6308192519e+03 2.2500000000e+03 0.0000e+00 0.0000e+00
<mgrwt>
<rscale>  0 0.60859794E+04</rscale>
<asrwt>0</asrwt>
<pdfrwt beam="1">  1        2 0.62113806E+00 0.60859794E+04</pdfrwt>
<pdfrwt beam="2">  1       -2 0.35284674E+00 0.60859794E+04</pdfrwt>
<totfact> 0.31653475E-03</totfact>
</mgrwt>
</event>
<event>
 8      1 +1.2359593e-08 5.31936300e+03 7.81860800e-03 7.78104600e-02
       -2 -1    0    0    0  501 -0.0000000000e+00 +0.0000000000e+00 +2.3114136468e+03 2.3114136468e+03 2.5500000000e-03 0.0000e+00 -1.0000e+00
        2 -1    0    0  501    0 +0.0000000000e+00 -0.0000000000e+00 -3.0604239050e+03 3.0604239050e+03 2.5500000000e-03 0.0000e+00 1.0000e+00
  1000011  2    1    2    0    0 -5.4000247567e+02 -8.6454388148e+02 +6.2108387908e+02 2.5471027735e+03 2.2500996772e+03 2.9706e+02 0.0000e+00
 -1000011  2    1    2    0    0 +5.4000247567e+02 +8.6454388148e+02 -1.3700941373e+03 2.8247347783e+03 2.2500955148e+03 7.6569e+02 0.0000e+00
       11  1    3    3    0    0 -3.7465031399e-02 -7.9484962278e-02 -6.2379875704e-02 1.0776361803e-01 5.1100000000e-04 0.0000e+00 1.0000e+00
  1000022  1    3    3    0    0 -5.3996501063e+02 -8.6446439652e+02 +6.2114625896e+02 2.5469950099e+03 2.2500000000e+03 0.0000e+00 0.0000e+00
      -11  1    4    4    0    0 +9.0430561271e-02 +5.3573467729e-02 -1.4807547746e-01 1.8158857468e-01 5.1100000000e-04 0.0000e+00 -1.0000e+00
  1000022  1    4    4    0    0 +5.3991204510e+02 +8.6449030801e+02 -1.3699460618e+03 2.8245531897e+03 2.2500000000e+03 0.0000e+00 0.0000e+00
<mgrwt>
<rscale>  0 0.53193630E+04</rscale>
<asrwt>0</asrwt>
<pdfrwt beam="1">  1        2 0.47083444E+00 0.53193630E+04</pdfrwt>
<pdfrwt beam="2">  1       -2 0.35560210E+00 0.53193630E+04</pdfrwt>
<totfact> 0.16227139E-02</totfact>
</mgrwt>
</event>
<event>
 8      1 +1.2359593e-08 4.61367600e+03 7.81860800e-03 7.89103200e-02
        2 -1    0    0  501    0 +0.0000000000e+00 +0.0000000000e+00 +3.4977721526e+03 3.4977721526e+03 2.5500000000e-03 0.0000e+00 1.0000e+00
       -2 -1    0    0    0  501 -0.0000000000e+00 -0.0000000000e+00 -1.5213974819e+03 1.5213974819e+03 2.5500000000e-03 0.0000e+00 -1.0000e+00
  1000011  2    1    2    0    0 -4.8824631163e+02 +6.3540258925e+01 +1.1264292803e+03 2.5640171137e+03 2.2500931116e+03 3.7564e+02 0.0000e+00
 -1000011  2    1    2    0    0 +4.8824631163e+02 -6.3540258925e+01 +8.4994539041e+02 2.4551525207e+03 2.2500988662e+03 4.3222e+01 0.0000e+00
       11  1    3    3    0    0 -4.8365035242e-02 +8.5236734073e-02 +8.7902171692e-02 1.3164926933e-01 5.1100000000e-04 0.0000e+00 1.0000e+00
  1000022  1    3    3    0    0 -4.8819794659e+02 +6.3455022191e+01 +1.1263413781e+03 2.5638854645e+03 2.2500000000e+03 0.0000e+00 0.0000e+00
      -11  1    4    4    0    0 +8.9001916548e-02 +6.7666132077e-03 -3.5193456651e-02 9.5947737771e-02 5.1100000000e-04 0.0000e+00 -1.0000e+00
  1000022  1    4    4    0    0 +4.8815730971e+02 -6.3547025538e+01 +8.4998058387e+02 2.4550565730e+03 2.2500000000e+03 0.0000e+00 0.0000e+00
<mgrwt>
<rscale>  0 0.46136761E+04</rscale>
<asrwt>0</asrwt>
<pdfrwt beam="1">  1        2 0.53811879E+00 0.46136761E+04</pdfrwt>
<pdfrwt beam="2">  1       -2 0.23406115E+00 0.46136761E+04</pdfrwt>
<totfact> 0.49306548E-02</totfact>
</mgrwt>
</event>
<event>
 8      1 +1.2359593e-08 5.23563100e+03 7.81860800e-03 7.79315200e-02
       -2 -1    0    0    0  501 -0.0000000000e+00 +0.0000000000e+00 +2.0453463569e+03 2.0453463569e+03 2.5500000000e-03 0.0000e+00 -1.0000e+00
        2 -1    0    0  501    0 +0.0000000000e+00 -0.0000000000e+00 -3.3505126113e+03 3.3505126113e+03 2.5500000000e-03 0.0000e+00 1.0000e+00
  1000011  2    1    2    0    0 -3.8349272515e+02 +2.5828006787e+02 +6.4132022416e+02 2.3849544823e+03 2.2500979954e+03 1.3781e+03 0.0000e+00
 -1000011  2    1    2    0    0 +3.8349272515e+02 -2.5828006787e+02 -1.9464864785e+03 3.0109044859e+03 2.2501024307e+03 3.9396e+02 0.0000e+00
       11  1    3    3    0    0 +7.1345130402e-02 +2.7754299173e-02 -1.8998172860e-02 7.8877246097e-02 5.1100000000e-04 0.0000e+00 1.0000e+00
  1000022  1    3    3    0    0 -3.8356407028e+02 +2.5825231357e+02 +6.4133922233e+02 2.3848756051e+03 2.2500000000e+03 0.0000e+00 0.0000e+00
      -11  1    4    4    0    0 +1.8946570049e-02 +2.7055215165e-02 +3.9224271083e-02 5.1281199249e-02 5.1100000000e-04 0.0000e+00 -1.0000e+00
  1000022  1    4    4    0    0 +3.8347377858e+02 -2.5830712309e+02 -1.9465257028e+03 3.0108532047e+03 2.2500000000e+03 0.0000e+00 0.0000e+00
<mgrwt>
<rscale>  0 0.52356313E+04</rscale>
<asrwt>0</asrwt>
<pdfrwt beam="1">  1        2 0.51546348E+00 0.52356313E+04</pdfrwt>
<pdfrwt beam="2">  1       -2 0.31466867E+00 0.52356313E+04</pdfrwt>
<totfact> 0.18985400E-02</totfact>
</mgrwt>
</event>
<event>
 8      1 +1.2359593e-08 5.39063400e+03 7.81860800e-03 7.77092000e-02
       -2 -1    0    0    0  501 -0.0000000000e+00 +0.0000000000e+00 +2.6300163603e+03 2.6300163603e+03 2.5500000000e-03 0.0000e+00 -1.0000e+00
        2 -1    0    0  501    0 +0.0000000000e+00 -0.0000000000e+00 -2.7622388877e+03 2.7622388877e+03 2.5500000000e-03 0.0000e+00 1.0000e+00
  1000011  2    1    2    0    0 -1.4645912271e+03 +1.0549120287e+02 +1.4755900385e+02 2.6908866533e+03 2.2500981012e+03 9.3158e+02 0.0000e+00
 -1000011  2    1    2    0    0 +1.4645912271e+03 -1.0549120287e+02 -2.7978153121e+02 2.7013685947e+03 2.2501019360e+03 5.1056e+02 0.0000e+00
       11  1    3    3    0    0 +2.5865745607e-02 +4.7095396495e-02 -4.0940155078e-02 6.7552722958e-02 5.1100000000e-04 0.0000e+00 1.0000e+00
  1000022  1    3    3    0    0 -1.4646170929e+03 +1.0544410747e+02 +1.4759994401e+02 2.6908191006e+03 2.2500000000e+03 0.0000e+00 0.0000e+00
      -11  1    4    4    0    0 -3.0700418777e-02 +3.6146247548e-02 +4.0881875813e-02 6.2615139623e-02 5.1100000000e-04 0.0000e+00 -1.0000e+00
  1000022  1    4    4    0    0 +1.4646219276e+03 -1.0552734912e+02 -2.7982241308e+02 2.7013059795e+03 2.2500000000e+03 0.0000e+00 0.0000e+00
<mgrwt>
<rscale>  0 0.53906339E+04</rscale>
<asrwt>0</asrwt>
<pdfrwt beam="1">  1        2 0.42495983E+00 0.53906339E+04</pdfrwt>
<pdfrwt beam="2">  1       -2 0.40461790E+00 0.53906339E+04</pdfrwt>
<totfact> 0.11921257E-02</totfact>
</mgrwt>
</event>
<event>
 8      1 +1.2359593e-08 4.65296500e+03 7.81860800e-03 7.88439100e-02
       -2 -1    0    0    0  501 -0.0000000000e+00 +0.0000000000e+00 +1.3913686502e+03 1.3913686502e+03 2.5500000000e-03 0.0000e+00 -1.0000e+00
        2 -1    0    0  501    0 +0.0000000000e+00 -0.0000000000e+00 -3.8900700583e+03 3.8900700583e+03 2.5500000000e-03 0.0000e+00 1.0000e+00
  1000011  2    1    2    0    0 +5.1838127854e+02 -2.7181482483e+02 -1.3441004895e+03 2.6855467636e+03 2.2501006299e+03 1.9548e+02 0.0000e+00
 -1000011  2    1    2    0    0 -5.1838127854e+02 +2.7181482483e+02 -1.1546009187e+03 2.5958919449e+03 2.2500998332e+03 3.2108e+01 0.0000e+00
       11  1    3    3    0    0 +3.8363378250e-02 +7.6568712154e-02 -3.4920182328e-03 8.5714476850e-02 5.1100000000e-04 0.0000e+00 1.0000e+00
  1000022  1    3    3    0    0 +5.1834291516e+02 -2.7189139354e+02 -1.3440969974e+03 2.6854610491e+03 2.2500000000e+03 0.0000e+00 0.0000e+00
      -11  1    4    4    0    0 -1.0641025676e-01 +4.7831804304e-02 -9.6033620521e-03 1.1706199044e-01 5.1100000000e-04 0.0000e+00 -1.0000e+00
  1000022  1    4    4    0    0 -5.1827486828e+02 +2.7176699303e+02 -1.1545913153e+03 2.5957748829e+03 2.2500000000e+03 0.0000e+00 0.0000e+00
<mgrwt>
<rscale>  0 0.46529653E+04</rscale>
<asrwt>0</asrwt>
<pdfrwt beam="1">  1        2 0.59847231E+00 0.46529653E+04</pdfrwt>
<pdfrwt beam="2">  1       -2 0.21405672E+00 0.46529653E+04</pdfrwt>
<totfact> 0.33650805E-02</totfact>
</mgrwt>
</event>
<event>
 8      1 +1.2359593e-08 4.70163300e+03 7.81860800e-03 7.87625700e-02
        2 -1    0    0  501    0 +0.0000000000e+00 +0.0000000000e+00 +3.1213028444e+03 3.1213028444e+03 2.5500000000e-03 0.0000e+00 1.0000e+00
       -2 -1    0    0    0  501 -0.0000000000e+00 -0.0000000000e+00 -1.7705232455e+03 1.7705232455e+03 2.5500000000e-03 0.0000e+00 -1.0000e+00
  1000011  2    1    2    0    0 +8.0125928022e+01 +6.3282320597e+02 +9.2269226316e+02 2.5142051703e+03 2.2501069423e+03 9.0776e+02 0.0000e+00
 -1000011  2    1    2    0    0 -8.0125928022e+01 -6.3282320597e+02 +4.2808733569e+02 2.3776209196e+03 2.2500971303e+03 1.7667e+02 0.0000e+00
       11  1    3    3    0    0 -3.2405096970e-02 -7.3831795910e-02 +4.7065807986e-02 9.3363136956e-02 5.1100000000e-04 0.0000e+00 1.0000e+00
  1000022  1    3    3    0    0 +8.0158333119e+01 +6.3289703777e+02 +9.2264519735e+02 2.5141118072e+03 2.2500000000e+03 0.0000e+00 0.0000e+00
      -11  1    4    4    0    0 -7.1118006270e-02 -9.3325890093e-02 -8.4242763696e-03 1.1763809659e-01 5.1100000000e-04 0.0000e+00 -1.0000e+00
  1000022  1    4    4    0    0 -8.0054810016e+01 -6.3272988008e+02 +4.2809575997e+02 2.3775032815e+03 2.2500000000e+03 0.0000e+00 0.0000e+00
<mgrwt>
<rscale>  0 0.47016334E+04</rscale>
<asrwt>0</asrwt>
<pdfrwt beam="1">  1        2 0.48020043E+00 0.47016334E+04</pdfrwt>
<pdfrwt beam="2">  1       -2 0.27238820E+00 0.47016334E+04</pdfrwt>
<totfact> 0.50908926E-02</totfact>
</mgrwt>
</event>
<event>
 8      1 +1.2359593e-08 5.08223400e+03 7.81860800e-03 7.81594600e-02
       -2 -1    0    0    0  501 -0.0000000000e+00 +0.0000000000e+00 +2.4150630646e+03 2.4150630646e+03 2.5500000000e-03 0.0000e+00 -1.0000e+00
        2 -1    0    0  501    0 +0.0000000000e+00 -0.0000000000e+00 -2.6737504279e+03 2.6737504279e+03 2.5500000000e-03 0.0000e+00 1.0000e+00
  1000011  2    1    2    0    0 -4.2697444746e+02 -2.6380069463e+02 -1.1995698184e+03 2.5988105111e+03 2.2501000729e+03 8.5590e+01 0.0000e+00
 -1000011  2    1    2    0    0 +4.2697444746e+02 +2.6380069463e+02 +9.4088245512e+02 2.4900029815e+03 2.2501015684e+03 7.7930e+02 0.0000e+00
       11  1    3    3    0    0 +3.3041927441e-02 -8.4279755881e-02 -1.0363554168e-01 1.3760607828e-01 5.1100000000e-04 0.0000e+00 1.0000e+00
  1000022  1    3    3    0    0 -4.2700748939e+02 -2.6371641488e+02 -1.1994661829e+03 2.5986729050e+03 2.2500000000e+03 0.0000e+00 0.0000e+00
      -11  1    4    4    0    0 -4.9250332025e-02 +8.0308240307e-02 +7.4036363090e-02 1.1981925038e-01 5.1100000000e-04 0.0000e+00 -1.0000e+00
  1000022  1    4    4    0    0 +4.2702369779e+02 +2.6372038639e+02 +9.4080841876e+02 2.4898831622e+03 2.2500000000e+03 0.0000e+00 0.0000e+00
<mgrwt>
<rscale>  0 0.50822341E+04</rscale>
<asrwt>0</asrwt>
<pdfrwt beam="1">  1        2 0.41134622E+00 0.50822341E+04</pdfrwt>
<pdfrwt beam="2">  1       -2 0.37154816E+00 0.50822341E+04</pdfrwt>
<totfact> 0.22598600E-02</totfact>
</mgrwt>
</event>
<event>
 8      1 +1.2359593e-08 5.20126000e+03 7.81860800e-03 7.79818900e-02
       -2 -1    0    0    0  501 -0.0000000000e+00 +0.0000000000e+00 +2.3291300122e+03 2.3291300122e+03 2.5500000000e-03 0.0000e+00 -1.0000e+00
        2 -1    0    0  501    0 +0.0000000000e+00 -0.0000000000e+00 -2.9037774337e+03 2.9037774337e+03 2.5500000000e-03 0.0000e+00 1.0000e+00
  1000011  2    1    2    0    0 -2.0536184954e+02 -2.3028087554e+02 +9.8732090615e+02 2.4764790551e+03 2.2500984795e+03 2.6458e+02 0.0000e+00
 -1000011  2    1    2    0    0 +2.0536184954e+02 +2.3028087554e+02 -1.5619683277e+03 2.7564283909e+03 2.2500999192e+03 8.4268e+02 0.0000e+00
       11  1    3    3    0    0 +3.6964806045e-02 +6.0168041607e-02 -1.9168713273e-02 7.3173019225e-02 5.1100000000e-04 0.0000e+00 1.0000e+00
  1000022  1    3    3    0    0 -2.0539881434e+02 -2.3034104358e+02 +9.8734007486e+02 2.4764058821e+03 2.2500000000e+03 0.0000e+00 0.0000e+00
      -11  1    4    4    0    0 -7.4201174819e-02 -2.8733928122e-03 +2.6292546289e-03 7.4305077642e-02 5.1100000000e-04 0.0000e+00 -1.0000e+00
  1000022  1    4    4    0    0 +2.0543605071e+02 +2.3028374893e+02 -1.5619709569e+03 2.7563540858e+03 2.2500000000e+03 0.0000e+00 0.0000e+00
<mgrwt>
<rscale>  0 0.52012595E+04</rscale>
<asrwt>0</asrwt>
<pdfrwt beam="1">  1        2 0.44673499E+00 0.52012595E+04</pdfrwt>
<pdfrwt beam="2">  1       -2 0.35832769E+00 0.52012595E+04</pdfrwt>
<totfact> 0.19728682E-02</totfact>
</mgrwt>
</event>
<event>
 8      1 +1.2359593e-08 5.91797800e+03 7.81860800e-03 7.70065500e-02
        2 -1    0    0  501    0 +0.0000000000e+00 +0.0000000000e+00 +2.6741560692e+03 2.6741560692e+03 2.5500000000e-03 0.0000e+00 1.0000e+00
       -2 -1    0    0    0  501 -0.0000000000e+00 -0.0000000000e+00 -3.2741605033e+03 3.2741605033e+03 2.5500000000e-03 0.0000e+00 -1.0000e+00
  1000011  2    1    2    0    0 +1.0018801110e+03 +1.0355446869e+01 -1.9481641023e+03 3.1404071955e+03 2.2500984405e+03 3.5231e+02 0.0000e+00
 -1000011  2    1    2    0    0 -1.0018801110e+03 -1.0355446869e+01 +1.3481596682e+03 2.8079093770e+03 2.2500999059e+03 1.4377e+03 0.0000e+00
       11  1    3    3    0    0 -5.5318811539e-02 +3.6384946772e-02 -3.6228364360e-02 7.5477086921e-02 5.1100000000e-04 0.0000e+00 1.0000e+00
  1000022  1    3    3    0    0 +1.0019354298e+03 +1.0319061922e+01 -1.9481278740e+03 3.1403317184e+03 2.2500000000e+03 0.0000e+00 0.0000e+00
      -11  1    4    4    0    0 -5.3562035411e-02 +3.0804025197e-02 -4.5940729664e-02 7.6997343370e-02 5.1100000000e-04 0.0000e+00 -1.0000e+00
  1000022  1    4    4    0    0 -1.0018265490e+03 -1.0386250894e+01 +1.3482056089e+03 2.8078323797e+03 2.2500000000e+03 0.0000e+00 0.0000e+00
<mgrwt>
<rscale>  0 0.59179781E+04</rscale>
<asrwt>0</asrwt>
<pdfrwt beam="1">  1        2 0.41140863E+00 0.59179781E+04</pdfrwt>
<pdfrwt beam="2">  1       -2 0.50371700E+00 0.59179781E+04</pdfrwt>
<totfact> 0.29501434E-03</totfact>
</mgrwt>
</event>
<event>
 8      1 +1.2359593e-08 5.22682200e+03 7.81860800e-03 7.79444000e-02
       -2 -1    0    0    0  501 -0.0000000000e+00 +0.0000000000e+00 +3.6948760505e+03 3.6948760505e+03 2.5500000000e-03 0.0000e+00 -1.0000e+00
        2 -1    0    0  501    0 +0.0000000000e+00 -0.0000000000e+00 -1.8484831292e+03 1.8484831292e+03 2.5500000000e-03 0.0000e+00 1.0000e+00
  1000011  2    1    2    0    0 -2.1143523905e+02 +7.4173284527e+02 -2.2500057899e+02 2.3892352740e+03 2.2500994334e+03 3.8748e+01 0.0000e+00
 -1000011  2    1    2    0    0 +2.1143523905e+02 -7.4173284527e+02 +2.0713935003e+03 3.1541239057e+03 2.2501009101e+03 6.7461e+02 0.0000e+00
       11  1    3    3    0    0 -3.1127153966e-02 +2.0114700798e-02 -1.0638720310e-01 1.1265877087e-01 5.1100000000e-04 0.0000e+00 1.0000e+00
  1000022  1    3    3    0    0 -2.1140411190e+02 +7.4171273057e+02 -2.2489419178e+02 2.3891226153e+03 2.2500000000e+03 0.0000e+00 0.0000e+00
      -11  1    4    4    0    0 -8.9284038766e-02 -4.1094888904e-02 +1.1410101966e-01 1.5059791772e-01 5.1100000000e-04 0.0000e+00 -1.0000e+00
  1000022  1    4    4    0    0 +2.1152452309e+02 -7.4169175038e+02 +2.0712793993e+03 3.1539733078e+03 2.2500000000e+03 0.0000e+00 0.0000e+00
<mgrwt>
<rscale>  0 0.52268216E+04</rscale>
<asrwt>0</asrwt>
<pdfrwt beam="1">  1        2 0.28438203E+00 0.52268216E+04</pdfrwt>
<pdfrwt beam="2">  1       -2 0.56844246E+00 0.52268216E+04</pdfrwt>
<totfact> 0.40712372E-03</totfact>
</mgrwt>
</event>
<event>
 8      1 +1.2359593e-08 4.63441300e+03 7.81860800e-03 7.88751900e-02
       -2 -1    0    0    0  501 -0.0000000000e+00 +0.0000000000e+00 +1.8154925918e+03 1.8154925918e+03 2.5500000000e-03 0.0000e+00 -1.0000e+00
        2 -1    0    0  501    0 +0.0000000000e+00 -0.0000000000e+00 -2.9575697709e+03 2.9575697709e+03 2.5500000000e-03 0.0000e+00 1.0000e+00
  1000011  2    1    2    0    0 +3.8386479069e+02 +3.9742667649e+02 -5.3530499349e+02 2.3779848143e+03 2.2501022644e+03 1.4864e+03 0.0000e+00
 -1000011  2    1    2    0    0 -3.8386479069e+02 -3.9742667649e+02 -6.0677218556e+02 2.3950775485e+03 2.2500941841e+03 6.1044e+02 0.0000e+00
       11  1    3    3    0    0 -1.0676577681e-02 +9.8846405640e-02 -8.4737522619e-02 1.3063426007e-01 5.1100000000e-04 0.0000e+00 1.0000e+00
  1000022  1    3    3    0    0 +3.8387546727e+02 +3.9732783009e+02 -5.3522025597e+02 2.3778541800e+03 2.2500000000e+03 0.0000e+00 0.0000e+00
      -11  1    4    4    0    0 -4.4540608866e-03 -5.3459969874e-02 +6.2366437708e-02 8.2265668307e-02 5.1100000000e-04 0.0000e+00 -1.0000e+00
  1000022  1    4    4    0    0 -3.8386033663e+02 -3.9737321652e+02 -6.0683455200e+02 2.3949952828e+03 2.2500000000e+03 0.0000e+00 0.0000e+00
<mgrwt>
<rscale>  0 0.46344130E+04</rscale>
<asrwt>0</asrwt>
<pdfrwt beam="1">  1        2 0.45501073E+00 0.46344130E+04</pdfrwt>
<pdfrwt beam="2">  1       -2 0.27930655E+00 0.46344130E+04</pdfrwt>
<totfact> 0.58964103E-02</totfact>
</mgrwt>
</event>
<event>
 8      1 +1.2359593e-08 5.00305700e+03 7.81860800e-03 7.82803600e-02
       -2 -1    0    0    0  501 -0.0000000000e+00 +0.0000000000e+00 +2.0036924973e+03 2.0036924973e+03 2.5500000000e-03 0.0000e+00 -1.0000e+00
        2 -1    0    0  501    0 +0.0000000000e+00 -0.0000000000e+00 -3.1230566859e+03 3.1230566859e+03 2.5500000000e-03 0.0000e+00 1.0000e+00
  1000011  2    1    2    0    0 -6.3511396154e+02 -7.7921471245e+02 -1.1994332467e+02 2.4673614343e+03 2.2500979388e+03 1.1862e+03 0.0000e+00
 -1000011  2    1    2    0    0 +6.3511396154e+02 +7.7921471245e+02 -9.9942086386e+02 2.6593877489e+03 2.2501012919e+03 1.5097e+03 0.0000e+00
       11  1    3    3    0    0 -6.3802730308e-02 -1.1310142518e-01 -6.3473115735e-02 1.4454002210e-01 5.1100000000e-04 0.0000e+00 1.0000e+00
  1000022  1    3    3    0    0 -6.3505015881e+02 -7.7910161103e+02 -1.1987985155e+02 2.4672168943e+03 2.2500000000e+03 0.0000e+00 0.0000e+00
      -11  1    4    4    0    0 +8.7390077930e-02 +1.1135296967e-01 -6.6802330965e-03 1.4170884126e-01 5.1100000000e-04 0.0000e+00 -1.0000e+00
  1000022  1    4    4    0    0 +6.3502657146e+02 +7.7910335948e+02 -9.9941418363e+02 2.6592460401e+03 2.2500000000e+03 0.0000e+00 0.0000e+00
<mgrwt>
<rscale>  0 0.50030572E+04</rscale>
<asrwt>0</asrwt>
<pdfrwt beam="1">  1        2 0.48047026E+00 0.50030572E+04</pdfrwt>
<pdfrwt beam="2">  1       -2 0.30826039E+00 0.50030572E+04</pdfrwt>
<totfact> 0.29919086E-02</totfact>
</mgrwt>
</event>
<event>
 8      1 +1.2359593e-08 5.00351600e+03 7.81860800e-03 7.82796500e-02
       -2 -1    0    0    0  501 -0.0000000000e+00 +0.0000000000e+00 +2.7140445924e+03 2.7140445924e+03 2.5500000000e-03 0.0000e+00 1.0000e+00
        2 -1    0    0  501    0 +0.0000000000e+00 -0.0000000000e+00 -2.3060755890e+03 2.3060755890e+03 2.5500000000e-03 0.0000e+00 -1.0000e+00
  1000011  2    1    2    0    0 -1.0837183870e+03 +1.4291884774e+02 +1.7287529367e+02 2.5075292520e+03 2.2500990518e+03 8.9789e+02 0.0000e+00
 -1000011  2    1    2    0    0 +1.0837183870e+03 -1.4291884774e+02 +2.3509370975e+02 2.5125909294e+03 2.2501050613e+03 9.2272e+02 0.0000e+00
       11  1    3    3    0    0 -1.4530188045e-01 +9.0683305246e-04 +5.5542457706e-02 1.5555926329e-01 5.1100000000e-04 0.0000e+00 1.0000e+00
  1000022  1    3    3    0    0 -1.0835730852e+03 +1.4291794090e+02 +1.7281975121e+02 2.5073736928e+03 2.2500000000e+03 0.0000e+00 0.0000e+00
      -11  1    4    4    0    0 +1.6279124220e-01 -1.5882577219e-02 -1.2439479164e-02 1.6403733119e-01 5.1100000000e-04 0.0000e+00 -1.0000e+00
  1000022  1    4    4    0    0 +1.0835555958e+03 -1.4290296516e+02 +2.3510614923e+02 2.5124268921e+03 2.2500000000e+03 0.0000e+00 0.0000e+00
<mgrwt>
<rscale>  0 0.50035156E+04</rscale>
<asrwt>0</asrwt>
<pdfrwt beam="1">  1        2 0.35478086E+00 0.50035156E+04</pdfrwt>
<pdfrwt beam="2">  1       -2 0.41754532E+00 0.50035156E+04</pdfrwt>
<totfact> 0.18653956E-02</totfact>
</mgrwt>
</event>
<event>
 8      1 +1.2359593e-08 4.56884600e+03 7.81860800e-03 7.89869300e-02
        2 -1    0    0  501    0 +0.0000000000e+00 +0.0000000000e+00 +2.1408791719e+03 2.1408791719e+03 2.5500000000e-03 0.0000e+00 1.0000e+00
       -2 -1    0    0    0  501 -0.0000000000e+00 -0.0000000000e+00 -2.4375915905e+03 2.4375915905e+03 2.5500000000e-03 0.0000e+00 -1.0000e+00
  1000011  2    1    2    0    0 +1.4345219567e+02 -8.8612112538e+01 +2.0905166644e+02 2.2660738151e+03 2.2501016194e+03 7.0469e+02 0.0000e+00
 -1000011  2    1    2    0    0 -1.4345219567e+02 +8.8612112538e+01 -5.0576408499e+02 2.3123969473e+03 2.2501003740e+03 2.6199e+03 0.0000e+00
       11  1    3    3    0    0 +3.1982270079e-02 +6.7098169433e-02 +7.7605183540e-02 1.0746094687e-01 5.1100000000e-04 0.0000e+00 1.0000e+00
  1000022  1    3    3    0    0 +1.4342021340e+02 -8.8679210707e+01 +2.0897406126e+02 2.2659663542e+03 2.2500000000e+03 0.0000e+00 0.0000e+00
      -11  1    4    4    0    0 +1.5090208265e-02 +1.0077474485e-01 -7.1026685366e-03 1.0214681616e-01 5.1100000000e-04 0.0000e+00 -1.0000e+00
  1000022  1    4    4    0    0 -1.4346728588e+02 +8.8511337793e+01 -5.0575698232e+02 2.3122948005e+03 2.2500000000e+03 0.0000e+00 0.0000e+00
<mgrwt>
<rscale>  0 0.45688463E+04</rscale>
<asrwt>0</asrwt>
<pdfrwt beam="1">  1        2 0.32936603E+00 0.45688463E+04</pdfrwt>
<pdfrwt beam="2">  1       -2 0.37501409E+00 0.45688463E+04</pdfrwt>
<totfact> 0.45284075E-02</totfact>
</mgrwt>
</event>
<event>
 8      1 +1.2359593e-08 4.95061300e+03 7.81860800e-03 7.83617100e-02
        2 -1    0    0  501    0 +0.0000000000e+00 +0.0000000000e+00 +3.6025096410e+03 3.6025096410e+03 2.5500000000e-03 0.0000e+00 1.0000e+00
       -2 -1    0    0    0  501 -0.0000000000e+00 -0.0000000000e+00 -1.7007985954e+03 1.7007985954e+03 2.5500000000e-03 0.0000e+00 -1.0000e+00
  1000011  2    1    2    0    0 -1.3308956956e+02 +5.1191888244e+01 -1.4362838555e+02 2.2591837759e+03 2.2500997261e+03 2.4062e+03 0.0000e+00
 -1000011  2    1    2    0    0 +1.3308956956e+02 -5.1191888244e+01 +2.0453394311e+03 3.0441244605e+03 2.2500993088e+03 4.9228e+02 0.0000e+00
       11  1    3    3    0    0 -6.2185357849e-02 +4.6973118912e-02 +6.2756840910e-02 1.0006085304e-01 5.1100000000e-04 0.0000e+00 1.0000e+00
  1000022  1    3    3    0    0 -1.3302738420e+02 +5.1144915125e+01 -1.4369114239e+02 2.2590837151e+03 2.2500000000e+03 0.0000e+00 0.0000e+00
      -11  1    4    4    0    0 -6.9383814320e-02 -6.4141536809e-02 +1.1375257215e-01 1.4787886596e-01 5.1100000000e-04 0.0000e+00 -1.0000e+00
  1000022  1    4    4    0    0 +1.3315895337e+02 -5.1127746707e+01 +2.0452256786e+03 3.0439765816e+03 2.2500000000e+03 0.0000e+00 0.0000e+00
<mgrwt>
<rscale>  0 0.49506134E+04</rscale>
<asrwt>0</asrwt>
<pdfrwt beam="1">  1        2 0.55423224E+00 0.49506134E+04</pdfrwt>
<pdfrwt beam="2">  1       -2 0.26166133E+00 0.49506134E+04</pdfrwt>
<totfact> 0.27321488E-02</totfact>
</mgrwt>
</event>
<event>
 8      1 +1.2359593e-08 4.76844900e+03 7.81860800e-03 7.86525400e-02
        2 -1    0    0  501    0 +0.0000000000e+00 +0.0000000000e+00 +2.1373554622e+03 2.1373554622e+03 2.5500000000e-03 0.0000e+00 1.0000e+00
       -2 -1    0    0    0  501 -0.0000000000e+00 -0.0000000000e+00 -2.6596070959e+03 2.6596070959e+03 2.5500000000e-03 0.0000e+00 -1.0000e+00
  1000011  2    1    2    0    0 -3.6181792246e+02 -5.7706742168e+02 -6.6054330511e+02 2.4419661854e+03 2.2501027476e+03 1.0755e+02 0.0000e+00
 -1000011  2    1    2    0    0 +3.6181792246e+02 +5.7706742168e+02 +1.3829167148e+02 2.3549963727e+03 2.2501031778e+03 8.8159e+02 0.0000e+00
       11  1    3    3    0    0 +1.7193169868e-02 +3.9205811167e-03 +7.0060487134e-02 7.2247551247e-02 5.1100000000e-04 0.0000e+00 1.0000e+00
  1000022  1    3    3    0    0 -3.6183511563e+02 -5.7707134226e+02 -6.6061336560e+02 2.4418939379e+03 2.2500000000e+03 0.0000e+00 0.0000e+00
      -11  1    4    4    0    0 -2.8210621325e-02 -3.3656368629e-02 -6.9171950892e-02 8.1936619046e-02 5.1100000000e-04 0.0000e+00 -1.0000e+00
  1000022  1    4    4    0    0 +3.6184613308e+02 +5.7710107804e+02 +1.3836084343e+02 2.3549144361e+03 2.2500000000e+03 0.0000e+00 0.0000e+00
<mgrwt>
<rscale>  0 0.47684487E+04</rscale>
<asrwt>0</asrwt>
<pdfrwt beam="1">  1        2 0.32882392E+00 0.47684487E+04</pdfrwt>
<pdfrwt beam="2">  1       -2 0.40917032E+00 0.47684487E+04</pdfrwt>
<totfact> 0.26850710E-02</totfact>
</mgrwt>
</event>
<event>
 8      1 +1.2359593e-08 5.81749900e+03 7.81860800e-03 7.71345100e-02
        2 -1    0    0  501    0 +0.0000000000e+00 +0.0000000000e+00 +3.9050133650e+03 3.9050133650e+03 2.5500000000e-03 0.0000e+00 1.0000e+00
       -2 -1    0    0    0  501 -0.0000000000e+00 -0.0000000000e+00 -2.1666568899e+03 2.1666568899e+03 2.5500000000e-03 0.0000e+00 -1.0000e+00
  1000011  2    1    2    0    0 +1.0322468838e+03 +1.5155583989e+03 +1.0655932844e+03 3.0920689575e+03 2.2501001089e+03 1.5481e+03 0.0000e+00
 -1000011  2    1    2    0    0 -1.0322468838e+03 -1.5155583989e+03 +6.7276319071e+02 2.9796012974e+03 2.2501028179e+03 5.3534e+02 0.0000e+00
       11  1    3    3    0    0 -1.5568166453e-02 +6.0070904311e-02 +1.2611367944e-01 1.4055533515e-01 5.1100000000e-04 0.0000e+00 1.0000e+00
  1000022  1    3    3    0    0 +1.0322624520e+03 +1.5154983280e+03 +1.0654671707e+03 3.0919284021e+03 2.2500000000e+03 0.0000e+00 0.0000e+00
      -11  1    4    4    0    0 -4.1873801576e-02 -1.5467520975e-01 -3.2452802508e-02 1.6349703652e-01 5.1100000000e-04 0.0000e+00 -1.0000e+00
  1000022  1    4    4    0    0 -1.0322050100e+03 -1.5154037237e+03 +6.7279564351e+02 2.9794378004e+03 2.2500000000e+03 0.0000e+00 0.0000e+00
<mgrwt>
<rscale>  0 0.58174992E+04</rscale>
<asrwt>0</asrwt>
<pdfrwt beam="1">  1        2 0.60077129E+00 0.58174992E+04</pdfrwt>
<pdfrwt beam="2">  1       -2 0.33333183E+00 0.58174992E+04</pdfrwt>
<totfact> 0.54785527E-03</totfact>
</mgrwt>
</event>
<event>
 8      1 +1.2359593e-08 4.67072200e+03 7.81860800e-03 7.88141100e-02
        2 -1    0    0  501    0 +0.0000000000e+00 +0.0000000000e+00 +2.6718007235e+03 2.6718007235e+03 2.5500000000e-03 0.0000e+00 1.0000e+00
       -2 -1    0    0    0  501 -0.0000000000e+00 -0.0000000000e+00 -2.0412870245e+03 2.0412870245e+03 2.5500000000e-03 0.0000e+00 -1.0000e+00
  1000011  2    1    2    0    0 +4.3507788387e+02 +1.9195053656e+02 +7.2493304683e+02 2.4113482889e+03 2.2500966367e+03 3.0320e+03 0.0000e+00
 -1000011  2    1    2    0    0 -4.3507788387e+02 -1.9195053656e+02 -9.4419347886e+01 2.3017394591e+03 2.2501003868e+03 4.5276e+02 0.0000e+00
       11  1    3    3    0    0 -4.4547757946e-03 +9.6430070087e-02 +6.5798901462e-02 1.1682619424e-01 5.1100000000e-04 0.0000e+00 1.0000e+00
  1000022  1    3    3    0    0 +4.3508233865e+02 +1.9185410649e+02 +7.2486724793e+02 2.4112314627e+03 2.2500000000e+03 0.0000e+00 0.0000e+00
      -11  1    4    4    0    0 -1.0641752642e-01 +3.2843301168e-02 -3.5774337557e-02 1.1697622060e-01 5.1100000000e-04 0.0000e+00 -1.0000e+00
  1000022  1    4    4    0    0 -4.3497146635e+02 -1.9198337986e+02 -9.4383573549e+01 2.3016224829e+03 2.2500000000e+03 0.0000e+00 0.0000e+00
<mgrwt>
<rscale>  0 0.46707225E+04</rscale>
<asrwt>0</asrwt>
<pdfrwt beam="1">  1        2 0.41104626E+00 0.46707225E+04</pdfrwt>
<pdfrwt beam="2">  1       -2 0.31404416E+00 0.46707225E+04</pdfrwt>
<totfact> 0.53746480E-02</totfact>
</mgrwt>
</event>
<event>
 8      1 +1.2359593e-08 4.70425700e+03 7.81860800e-03 7.87582200e-02
        2 -1    0    0  501    0 +0.0000000000e+00 +0.0000000000e+00 +4.8382896317e+03 4.8382896317e+03 2.5500000000e-03 0.0000e+00 1.0000e+00
       -2 -1    0    0    0  501 -0.0000000000e+00 -0.0000000000e+00 -1.1434841296e+03 1.1434841296e+03 2.5500000000e-03 0.0000e+00 -1.0000e+00
  1000011  2    1    2    0    0 -3.1031321280e+02 -7.6463957906e+01 +1.0766466787e+03 2.5148085251e+03 2.2501006245e+03 4.5351e+03 0.0000e+00
 -1000011  2    1    2    0    0 +3.1031321280e+02 +7.6463957906e+01 +2.6181588235e+03 3.4669652362e+03 2.2501002860e+03 5.6295e+02 0.0000e+00
       11  1    3    3    0    0 -5.0824084324e-02 -3.3319169637e-02 -4.7351183546e-02 7.7043167584e-02 5.1100000000e-04 0.0000e+00 1.0000e+00
  1000022  1    3    3    0    0 -3.1026238871e+02 -7.6430638737e+01 +1.0766940299e+03 2.5147314819e+03 2.2500000000e+03 0.0000e+00 0.0000e+00
      -11  1    4    4    0    0 +1.0572939632e-01 -3.3435497939e-02 +9.9916816006e-02 1.4926576430e-01 5.1100000000e-04 0.0000e+00 -1.0000e+00
  1000022  1    4    4    0    0 +3.1020748340e+02 +7.6497393404e+01 +2.6180589067e+03 3.4668159704e+03 2.2500000000e+03 0.0000e+00 0.0000e+00
<mgrwt>
<rscale>  0 0.47042565E+04</rscale>
<asrwt>0</asrwt>
<pdfrwt beam="1">  1        2 0.74435225E+00 0.47042565E+04</pdfrwt>
<pdfrwt beam="2">  1       -2 0.17592063E+00 0.47042565E+04</pdfrwt>
<totfact> 0.76604302E-03</totfact>
</mgrwt>
</event>
<event>
 8      1 +1.2359593e-08 4.74976900e+03 7.81860800e-03 7.86831100e-02
       -2 -1    0    0    0  501 -0.0000000000e+00 +0.0000000000e+00 +2.2224491502e+03 2.2224491502e+03 2.5500000000e-03 0.0000e+00 -1.0000e+00
        2 -1    0    0  501    0 +0.0000000000e+00 -0.0000000000e+00 -2.5377755079e+03 2.5377755079e+03 2.5500000000e-03 0.0000e+00 1.0000e+00
  1000011  2    1    2    0    0 +7.4723797950e+02 +1.3032056749e+02 -1.9994142456e+02 2.3829124889e+03 2.2500993996e+03 6.9169e+03 0.0000e+00
 -1000011  2    1    2    0    0 -7.4723797950e+02 -1.3032056749e+02 -1.1538493315e+02 2.3773121692e+03 2.2501003130e+03 1.8236e+03 0.0000e+00
       11  1    3    3    0    0 -4.0703176617e-02 +7.0230013995e-02 -3.3264377677e-02 8.7725613270e-02 5.1100000000e-04 0.0000e+00 1.0000e+00
  1000022  1    3    3    0    0 +7.4727868267e+02 +1.3025033747e+02 -1.9990816018e+02 2.3828247633e+03 2.2500000000e+03 0.0000e+00 0.0000e+00
      -11  1    4    4    0    0 -2.2913079574e-02 +7.9688488049e-03 +9.4063582277e-02 9.7142834331e-02 5.1100000000e-04 0.0000e+00 -1.0000e+00
  1000022  1    4    4    0    0 -7.4721506642e+02 -1.3032853633e+02 -1.1547899673e+02 2.3772150264e+03 2.2500000000e+03 0.0000e+00 0.0000e+00
<mgrwt>
<rscale>  0 0.47497693E+04</rscale>
<asrwt>0</asrwt>
<pdfrwt beam="1">  1        2 0.39042700E+00 0.47497693E+04</pdfrwt>
<pdfrwt beam="2">  1       -2 0.34191525E+00 0.47497693E+04</pdfrwt>
<totfact> 0.42986790E-02</totfact>
</mgrwt>
</event>
<event>
 8      1 +1.2359593e-08 4.69012700e+03 7.81860800e-03 7.87817100e-02
       -1 -1    0    0    0  501 -0.0000000000e+00 +0.0000000000e+00 +2.0876258911e+03 2.0876258911e+03 5.0400000000e-03 0.0000e+00 -1.0000e+00
        1 -1    0    0  501    0 +0.0000000000e+00 -0.0000000000e+00 -2.6342467225e+03 2.6342467225e+03 5.0400000000e-03 0.0000e+00 1.0000e+00
  1000011  2    1    2    0    0 -3.6665327994e+02 +5.0377175336e+02 -4.9416717494e+02 2.3864980239e+03 2.2501002231e+03 8.3427e+02 0.0000e+00
 -1000011  2    1    2    0    0 +3.6665327994e+02 -5.0377175336e+02 -5.2453656482e+01 2.3353745897e+03 2.2501116596e+03 7.8117e+02 0.0000e+00
       11  1    3    3    0    0 -8.4912167346e-03 +5.5439262849e-02 -1.1983902543e-01 1.3231502389e-01 5.1100000000e-04 0.0000e+00 1.0000e+00
  1000022  1    3    3    0    0 -3.6664478873e+02 +5.0371631410e+02 -4.9404733591e+02 2.3863657088e+03 2.2500000000e+03 0.0000e+00 0.0000e+00
      -11  1    4    4    0    0 +9.9907225329e-02 +6.1075314337e-03 +6.6989982842e-02 1.2044365669e-01 5.1100000000e-04 0.0000e+00 -1.0000e+00
  1000022  1    4    4    0    0 +3.6655337272e+02 -5.0377786089e+02 -5.2520646465e+01 2.3352541460e+03 2.2500000000e+03 0.0000e+00 0.0000e+00
<mgrwt>
<rscale>  0 0.46901265E+04</rscale>
<asrwt>0</asrwt>
<pdfrwt beam="1">  1        1 0.40526873E+00 0.46901265E+04</pdfrwt>
<pdfrwt beam="2">  1       -1 0.32117321E+00 0.46901265E+04</pdfrwt>
<totfact> 0.19428227E-02</totfact>
</mgrwt>
</event>
<event>
 8      1 +1.2359593e-08 4.87868200e+03 7.81860800e-03 7.84749900e-02
       -2 -1    0    0    0  501 -0.0000000000e+00 +0.0000000000e+00 +1.9874688853e+03 1.9874688853e+03 2.5500000000e-03 0.0000e+00 -1.0000e+00
        2 -1    0    0  501    0 +0.0000000000e+00 -0.0000000000e+00 -2.9939515358e+03 2.9939515358e+03 2.5500000000e-03 0.0000e+00 1.0000e+00
  1000011  2    1    2    0    0 -2.4155995137e+02 +6.9048164007e+02 +1.0280750576e+02 2.3682637880e+03 2.2501084154e+03 1.2874e+03 0.0000e+00
 -1000011  2    1    2    0    0 +2.4155995137e+02 -6.9048164007e+02 -1.1092901563e+03 2.6131566331e+03 2.2500992940e+03 2.0577e+02 0.0000e+00
       11  1    3    3    0    0 -1.0550478704e-02 +7.5654775649e-02 -9.5135151661e-02 1.2200785062e-01 5.1100000000e-04 0.0000e+00 1.0000e+00
  1000022  1    3    3    0    0 -2.4154940089e+02 +6.9040598530e+02 +1.0290264091e+02 2.3681417802e+03 2.2500000000e+03 0.0000e+00 0.0000e+00
      -11  1    4    4    0    0 +3.3171134823e-02 +6.6799418294e-02 -1.0323643182e-02 7.5294920194e-02 5.1100000000e-04 0.0000e+00 -1.0000e+00
  1000022  1    4    4    0    0 +2.4152678024e+02 -6.9054843949e+02 -1.1092798326e+03 2.6130813382e+03 2.2500000000e+03 0.0000e+00 0.0000e+00
<mgrwt>
<rscale>  0 0.48786824E+04</rscale>
<asrwt>0</asrwt>
<pdfrwt beam="1">  1        2 0.46060793E+00 0.48786824E+04</pdfrwt>
<pdfrwt beam="2">  1       -2 0.30576444E+00 0.48786824E+04</pdfrwt>
<totfact> 0.37809324E-02</totfact>
</mgrwt>
</event>
<event>
 8      1 +1.2359593e-08 5.41740100e+03 7.81860800e-03 7.76715800e-02
        2 -1    0    0  501    0 +0.0000000000e+00 +0.0000000000e+00 +3.2136745378e+03 3.2136745378e+03 2.5500000000e-03 0.0000e+00 1.0000e+00
       -2 -1    0    0    0  501 -0.0000000000e+00 -0.0000000000e+00 -2.2830747273e+03 2.2830747273e+03 2.5500000000e-03 0.0000e+00 -1.0000e+00
  1000011  2    1    2    0    0 +7.0562550685e+01 -1.1035312603e+03 -5.7507250568e+02 2.5722433107e+03 2.2501037636e+03 3.7561e+01 0.0000e+00
 -1000011  2    1    2    0    0 -7.0562550685e+01 +1.1035312603e+03 +1.5056723162e+03 2.9245059544e+03 2.2500945841e+03 1.8211e+03 0.0000e+00
       11  1    3    3    0    0 +4.5932433718e-02 -1.9949915407e-02 +6.8903509292e-02 8.5180641844e-02 5.1100000000e-04 0.0000e+00 1.0000e+00
  1000022  1    3    3    0    0 +7.0516618251e+01 -1.1035113104e+03 -5.7514140919e+02 2.5721581301e+03 2.2500000000e+03 0.0000e+00 0.0000e+00
      -11  1    4    4    0    0 +8.6199945617e-02 +1.3450277396e-02 +3.6606623507e-02 9.4613139733e-02 5.1100000000e-04 0.0000e+00 -1.0000e+00
  1000022  1    4    4    0    0 -7.0648750630e+01 +1.1035178100e+03 +1.5056357095e+03 2.9244113412e+03 2.2500000000e+03 0.0000e+00 0.0000e+00
<mgrwt>
<rscale>  0 0.54174013E+04</rscale>
<asrwt>0</asrwt>
<pdfrwt beam="1">  1        2 0.49441146E+00 0.54174013E+04</pdfrwt>
<pdfrwt beam="2">  1       -2 0.35124227E+00 0.54174013E+04</pdfrwt>
<totfact> 0.13660604E-02</totfact>
</mgrwt>
</event>
<event>
 8      1 +1.2359593e-08 5.75958200e+03 7.81860800e-03 7.72094700e-02
        2 -1    0    0  501    0 +0.0000000000e+00 +0.0000000000e+00 +3.5134676304e+03 3.5134676304e+03 2.5500000000e-03 0.0000e+00 1.0000e+00
       -2 -1    0    0    0  501 -0.0000000000e+00 -0.0000000000e+00 -2.3604019611e+03 2.3604019611e+03 2.5500000000e-03 0.0000e+00 -1.0000e+00
  1000011  2    1    2    0    0 -1.0653284845e+03 -1.4405573084e+03 +4.3186630575e+02 2.9085363811e+03 2.2500989390e+03 5.2012e+03 0.0000e+00
 -1000011  2    1    2    0    0 +1.0653284845e+03 +1.4405573084e+03 +7.2119936362e+02 2.9653332104e+03 2.2500983063e+03 1.1036e+02 0.0000e+00
       11  1    3    3    0    0 +2.7462400496e-02 +3.4894218710e-02 -1.5208285022e-02 4.6939779680e-02 5.1100000000e-04 0.0000e+00 1.0000e+00
  1000022  1    3    3    0    0 -1.0653559469e+03 -1.4405922026e+03 +4.3188151404e+02 2.9084894413e+03 2.2500000000e+03 0.0000e+00 0.0000e+00
      -11  1    4    4    0    0 -5.0798783212e-02 +7.0036117327e-02 -1.2260059421e-02 8.7385032604e-02 5.1100000000e-04 0.0000e+00 -1.0000e+00
  1000022  1    4    4    0    0 +1.0653792833e+03 +1.4404872723e+03 +7.2121162368e+02 2.9652458254e+03 2.2500000000e+03 0.0000e+00 0.0000e+00
<mgrwt>
<rscale>  0 0.57595819E+04</rscale>
<asrwt>0</asrwt>
<pdfrwt beam="1">  1        2 0.54053348E+00 0.57595819E+04</pdfrwt>
<pdfrwt beam="2">  1       -2 0.36313876E+00 0.57595819E+04</pdfrwt>
<totfact> 0.69921214E-03</totfact>
</mgrwt>
</event>
<event>
 8      1 +1.2359593e-08 4.83280900e+03 7.81860800e-03 7.85482800e-02
        2 -1    0    0  501    0 +0.0000000000e+00 +0.0000000000e+00 +4.1662922996e+03 4.1662922996e+03 2.5500000000e-03 0.0000e+00 1.0000e+00
       -2 -1    0    0    0  501 -0.0000000000e+00 -0.0000000000e+00 -1.4014885021e+03 1.4014885021e+03 2.5500000000e-03 0.0000e+00 -1.0000e+00
  1000011  2    1    2    0    0 +2.2435575083e+02 -7.4894068131e+02 +1.8501055858e+03 3.0161385458e+03 2.2501007537e+03 3.3849e+02 0.0000e+00
 -1000011  2    1    2    0    0 -2.2435575083e+02 +7.4894068131e+02 +9.1469821175e+02 2.5516422560e+03 2.2501017170e+03 3.4974e+03 0.0000e+00
       11  1    3    3    0    0 +4.9108682416e-02 +6.2628608758e-02 +7.3714822472e-02 1.0848106374e-01 5.1100000000e-04 0.0000e+00 1.0000e+00
  1000022  1    3    3    0    0 +2.2430664215e+02 -7.4900330992e+02 +1.8500318709e+03 3.0160300648e+03 2.2500000000e+03 0.0000e+00 0.0000e+00
      -11  1    4    4    0    0 -2.4636263123e-02 +1.4984205614e-02 -6.6449731673e-02 7.2438246203e-02 5.1100000000e-04 0.0000e+00 -1.0000e+00
  1000022  1    4    4    0    0 -2.2433111457e+02 +7.4892569711e+02 +9.1476466149e+02 2.5515698177e+03 2.2500000000e+03 0.0000e+00 0.0000e+00
<mgrwt>
<rscale>  0 0.48328090E+04</rscale>
<asrwt>0</asrwt>
<pdfrwt beam="1">  1        2 0.64096804E+00 0.48328090E+04</pdfrwt>
<pdfrwt beam="2">  1       -2 0.21561362E+00 0.48328090E+04</pdfrwt>
<totfact> 0.19220517E-02</totfact>
</mgrwt>
</event>
<event>
 8      1 +1.2359593e-08 4.59482100e+03 7.81860800e-03 7.89424300e-02
        2 -1    0    0  501    0 +0.0000000000e+00 +0.0000000000e+00 +2.1646280249e+03 2.1646280249e+03 2.5500000000e-03 0.0000e+00 1.0000e+00
       -2 -1    0    0    0  501 -0.0000000000e+00 -0.0000000000e+00 -2.4383384663e+03 2.4383384663e+03 2.5500000000e-03 0.0000e+00 -1.0000e+00
  1000011  2    1    2    0    0 +2.5970649230e+02 -1.9092266487e+02 +1.9727344258e+02 2.2816127161e+03 2.2500979644e+03 1.3783e+03 0.0000e+00
 -1000011  2    1    2    0    0 -2.5970649230e+02 +1.9092266487e+02 -4.7098388405e+02 2.3213537751e+03 2.2501019097e+03 8.4453e+01 0.0000e+00
       11  1    3    3    0    0 +9.3413635671e-02 +1.1961438517e-02 +5.9470469890e-02 1.1138303706e-01 5.1100000000e-04 0.0000e+00 1.0000e+00
  1000022  1    3    3    0    0 +2.5961307866e+02 -1.9093462631e+02 +1.9721397211e+02 2.2815013331e+03 2.2500000000e+03 0.0000e+00 0.0000e+00
      -11  1    4    4    0    0 +7.6930739218e-02 +1.6707341629e-02 -7.0869591716e-02 1.0592560399e-01 5.1100000000e-04 0.0000e+00 -1.0000e+00
  1000022  1    4    4    0    0 -2.5978342304e+02 +1.9090595753e+02 -4.7091301446e+02 2.3212478495e+03 2.2500000000e+03 0.0000e+00 0.0000e+00
<mgrwt>
<rscale>  0 0.45948213E+04</rscale>
<asrwt>0</asrwt>
<pdfrwt beam="1">  1        2 0.33301970E+00 0.45948213E+04</pdfrwt>
<pdfrwt beam="2">  1       -2 0.37512899E+00 0.45948213E+04</pdfrwt>
<totfact> 0.43750209E-02</totfact>
</mgrwt>
</event>
<event>
 8      1 +1.2359593e-08 4.70303400e+03 7.81860800e-03 7.87602500e-02
       -2 -1    0    0    0  501 -0.0000000000e+00 +0.0000000000e+00 +2.3419595851e+03 2.3419595851e+03 2.5500000000e-03 0.0000e+00 -1.0000e+00
        2 -1    0    0  501    0 +0.0000000000e+00 -0.0000000000e+00 -2.3611132788e+03 2.3611132788e+03 2.5500000000e-03 0.0000e+00 1.0000e+00
  1000011  2    1    2    0    0 -4.8802119078e+01 -6.9672519330e+01 +6.6825251879e+02 2.3487760014e+03 2.2501003020e+03 4.9993e+03 0.0000e+00
 -1000011  2    1    2    0    0 +4.8802119078e+01 +6.9672519330e+01 -6.8740621250e+02 2.3542968625e+03 2.2501001109e+03 1.1524e+03 0.0000e+00
       11  1    3    3    0    0 -7.1961230583e-02 -6.2861583717e-02 -1.1331487539e-02 9.6221935559e-02 5.1100000000e-04 0.0000e+00 1.0000e+00
  1000022  1    3    3    0    0 -4.8730157848e+01 -6.9609657746e+01 +6.6826385027e+02 2.3486797794e+03 2.2500000000e+03 0.0000e+00 0.0000e+00
      -11  1    4    4    0    0 -7.3304833142e-02 +3.7071480646e-02 +2.8473546310e-02 8.6941915479e-02 5.1100000000e-04 0.0000e+00 -1.0000e+00
  1000022  1    4    4    0    0 +4.8875423911e+01 +6.9635447849e+01 -6.8743468605e+02 2.3542099206e+03 2.2500000000e+03 0.0000e+00 0.0000e+00
<mgrwt>
<rscale>  0 0.47030339E+04</rscale>
<asrwt>0</asrwt>
<pdfrwt beam="1">  1        2 0.36324820E+00 0.47030339E+04</pdfrwt>
<pdfrwt beam="2">  1       -2 0.36030147E+00 0.47030339E+04</pdfrwt>
<totfact> 0.41762806E-02</totfact>
</mgrwt>
</event>
<event>
 8      1 +1.2359593e-08 5.71323600e+03 7.81860800e-03 7.72701100e-02
        2 -1    0    0  501    0 +0.0000000000e+00 +0.0000000000e+00 +2.4666888572e+03 2.4666888572e+03 2.5500000000e-03 0.0000e+00 1.0000e+00
       -2 -1    0    0    0  501 -0.0000000000e+00 -0.0000000000e+00 -3.3081865381e+03 3.3081865381e+03 2.5500000000e-03 0.0000e+00 -1.0000e+00
  1000011  2    1    2    0    0 +1.6148485231e+03 +8.0409089925e+00 -1.1279497475e+03 2.9904883387e+03 2.2500998782e+03 1.0615e+02 0.0000e+00
 -1000011  2    1    2    0    0 -1.6148485231e+03 -8.0409089925e+00 +2.8645206658e+02 2.7843870566e+03 2.2501013501e+03 1.1715e+03 0.0000e+00
       11  1    3    3    0    0 +6.3506418356e-02 +9.4800146401e-02 -1.3942961091e-02 1.1495564429e-01 5.1100000000e-04 0.0000e+00 1.0000e+00
  1000022  1    3    3    0    0 +1.6147850167e+03 +7.9461088461e+00 -1.1279358045e+03 2.9903733830e+03 2.2500000000e+03 0.0000e+00 0.0000e+00
      -11  1    4    4    0    0 -1.2878937020e-01 +6.4505507400e-02 +7.9663823214e-02 1.6460330459e-01 5.1100000000e-04 0.0000e+00 -1.0000e+00
  1000022  1    4    4    0    0 -1.6147197338e+03 -8.1054144999e+00 +2.8637240276e+02 2.7842224533e+03 2.2500000000e+03 0.0000e+00 0.0000e+00
<mgrwt>
<rscale>  0 0.57132362E+04</rscale>
<asrwt>0</asrwt>
<pdfrwt beam="1">  1        2 0.37949059E+00 0.57132362E+04</pdfrwt>
<pdfrwt beam="2">  1       -2 0.50895178E+00 0.57132362E+04</pdfrwt>
<totfact> 0.36826960E-03</totfact>
</mgrwt>
</event>
<event>
 8      1 +1.2359593e-08 5.00932000e+03 7.81860800e-03 7.82707100e-02
       -2 -1    0    0    0  501 -0.0000000000e+00 +0.0000000000e+00 +2.1532733438e+03 2.1532733438e+03 2.5500000000e-03 0.0000e+00 -1.0000e+00
        2 -1    0    0  501    0 +0.0000000000e+00 -0.0000000000e+00 -2.9133885864e+03 2.9133885864e+03 2.5500000000e-03 0.0000e+00 1.0000e+00
  1000011  2    1    2    0    0 -3.3864389003e+02 +1.0381367810e+03 -2.4447786564e+02 2.5129929326e+03 2.2501014182e+03 3.5770e+02 0.0000e+00
 -1000011  2    1    2    0    0 +3.3864389003e+02 -1.0381367810e+03 -5.1563737698e+02 2.5536689977e+03 2.2500968390e+03 1.0692e+03 0.0000e+00
       11  1    3    3    0    0 -1.1571720432e-01 +5.4083998903e-02 +7.8793765692e-03 1.2797615326e-01 5.1100000000e-04 0.0000e+00 1.0000e+00
  1000022  1    3    3    0    0 -3.3852817282e+02 +1.0380826970e+03 -2.4448574502e+02 2.5128649564e+03 2.2500000000e+03 0.0000e+00 0.0000e+00
      -11  1    4    4    0    0 +4.8576103919e-02 -4.9775704179e-02 +6.9107716661e-02 9.8047926759e-02 5.1100000000e-04 0.0000e+00 -1.0000e+00
  1000022  1    4    4    0    0 +3.3859531392e+02 -1.0380870053e+03 -5.1570648470e+02 2.5535709498e+03 2.2500000000e+03 0.0000e+00 0.0000e+00
<mgrwt>
<rscale>  0 0.50093201E+04</rscale>
<asrwt>0</asrwt>
<pdfrwt beam="1">  1        2 0.44821363E+00 0.50093201E+04</pdfrwt>
<pdfrwt beam="2">  1       -2 0.33127282E+00 0.50093201E+04</pdfrwt>
<totfact> 0.29221706E-02</totfact>
</mgrwt>
</event>
<event>
 8      1 +1.2359593e-08 4.88007600e+03 7.81860800e-03 7.84727800e-02
        1 -1    0    0  501    0 +0.0000000000e+00 +0.0000000000e+00 +1.9936081703e+03 1.9936081703e+03 5.0400000000e-03 0.0000e+00 1.0000e+00
       -1 -1    0    0    0  501 -0.0000000000e+00 -0.0000000000e+00 -2.9864374269e+03 2.9864374269e+03 5.0400000000e-03 0.0000e+00 -1.0000e+00
  1000011  2    1    2    0    0 -3.3625722316e+02 -3.0610419263e+01 -1.3958544755e+03 2.6693333031e+03 2.2500943643e+03 4.2115e+02 0.0000e+00
 -1000011  2    1    2    0    0 +3.3625722316e+02 +3.0610419263e+01 +4.0302521880e+02 2.3107122941e+03 2.2501013446e+03 6.4876e+02 0.0000e+00
       11  1    3    3    0    0 +5.1886282885e-03 -9.1362251106e-02 -8.1587777209e-02 1.2260019888e-01 5.1100000000e-04 0.0000e+00 1.0000e+00
  1000022  1    3    3    0    0 -3.3626241179e+02 -3.0519057012e+01 -1.3957728877e+03 2.6692107029e+03 2.2500000000e+03 0.0000e+00 0.0000e+00
      -11  1    4    4    0    0 -7.3319165147e-02 +4.0421892323e-02 +4.9261496300e-02 9.7142087580e-02 5.1100000000e-04 0.0000e+00 -1.0000e+00
  1000022  1    4    4    0    0 +3.3633054232e+02 +3.0569997371e+01 +4.0297595731e+02 2.3106151520e+03 2.2500000000e+03 0.0000e+00 0.0000e+00
<mgrwt>
<rscale>  0 0.48800763E+04</rscale>
<asrwt>0</asrwt>
<pdfrwt beam="1">  1        1 0.30670895E+00 0.48800763E+04</pdfrwt>
<pdfrwt beam="2">  1       -1 0.45945191E+00 0.48800763E+04</pdfrwt>
<totfact> 0.61263930E-03</totfact>
</mgrwt>
</event>
<event>
 8      1 +1.2359593e-08 6.28312300e+03 7.81860800e-03 7.65625600e-02
        2 -1    0    0  501    0 +0.0000000000e+00 +0.0000000000e+00 +2.7030481814e+03 2.7030481814e+03 2.5500000000e-03 0.0000e+00 1.0000e+00
       -2 -1    0    0    0  501 -0.0000000000e+00 -0.0000000000e+00 -3.6512143032e+03 3.6512143032e+03 2.5500000000e-03 0.0000e+00 -1.0000e+00
  1000011  2    1    2    0    0 -9.0506346203e+01 -2.1341739915e+03 -9.7319308469e+02 3.2516071013e+03 2.2501008725e+03 4.2187e+02 0.0000e+00
 -1000011  2    1    2    0    0 +9.0506346203e+01 +2.1341739915e+03 +2.5026962858e+01 3.1026553833e+03 2.2501008986e+03 4.4186e+03 0.0000e+00
       11  1    3    3    0    0 +6.8113498642e-02 -1.8924283966e-01 -5.3390137288e-02 2.0809389345e-01 5.1100000000e-04 0.0000e+00 1.0000e+00
  1000022  1    3    3    0    0 -9.0574459702e+01 -2.1339847486e+03 -9.7313969456e+02 3.2513990074e+03 2.2500000000e+03 0.0000e+00 0.0000e+00
      -11  1    4    4    0    0 +2.4051263010e-02 +2.2958484079e-01 +2.2945429077e-02 2.3197934346e-01 5.1100000000e-04 0.0000e+00 -1.0000e+00
  1000022  1    4    4    0    0 +9.0482294940e+01 +2.1339444066e+03 +2.5004017429e+01 3.1024234039e+03 2.2500000000e+03 0.0000e+00 0.0000e+00
<mgrwt>
<rscale>  0 0.62831228E+04</rscale>
<asrwt>0</asrwt>
<pdfrwt beam="1">  1        2 0.41585357E+00 0.62831228E+04</pdfrwt>
<pdfrwt beam="2">  1       -2 0.56172528E+00 0.62831228E+04</pdfrwt>
<totfact> 0.13271811E-03</totfact>
</mgrwt>
</event>
<event>
 8      1 +1.2359593e-08 4.57254300e+03 7.81860800e-03 7.89805800e-02
        2 -1    0    0  501    0 +0.0000000000e+00 +0.0000000000e+00 +3.0354496652e+03 3.0354496652e+03 2.5500000000e-03 0.0000e+00 1.0000e+00
       -2 -1    0    0    0  501 -0.0000000000e+00 -0.0000000000e+00 -1.7219978831e+03 1.7219978831e+03 2.5500000000e-03 0.0000e+00 -1.0000e+00
  1000011  2    1    2    0    0 +1.1450690133e+02 +1.3900055120e+02 +2.7922489970e+02 2.2744989788e+03 2.2500991259e+03 3.5104e+02 0.0000e+00
 -1000011  2    1    2    0    0 -1.1450690133e+02 -1.3900055120e+02 +1.0342268824e+03 2.4829485695e+03 2.2501056355e+03 7.2686e+01 0.0000e+00
       11  1    3    3    0    0 +3.1085628123e-02 -1.6207911061e-02 -8.1411635197e-02 8.8640439094e-02 5.1100000000e-04 0.0000e+00 1.0000e+00
  1000022  1    3    3    0    0 +1.1447581571e+02 +1.3901675911e+02 +2.7930631134e+02 2.2744103384e+03 2.2500000000e+03 0.0000e+00 0.0000e+00
      -11  1    4    4    0    0 -7.2809875977e-02 -7.0133398638e-02 -4.3728831551e-03 1.0118969500e-01 5.1100000000e-04 0.0000e+00 -1.0000e+00
  1000022  1    4    4    0    0 -1.1443409146e+02 -1.3893041780e+02 +1.0342312553e+03 2.4828473799e+03 2.2500000000e+03 0.0000e+00 0.0000e+00
<mgrwt>
<rscale>  0 0.45725432E+04</rscale>
<asrwt>0</asrwt>
<pdfrwt beam="1">  1        2 0.46699225E+00 0.45725432E+04</pdfrwt>
<pdfrwt beam="2">  1       -2 0.26492275E+00 0.45725432E+04</pdfrwt>
<totfact> 0.64818590E-02</totfact>
</mgrwt>
</event>
<event>
 8      1 +1.2359593e-08 4.72477500e+03 7.81860800e-03 7.87242500e-02
       -2 -1    0    0    0  501 -0.0000000000e+00 +0.0000000000e+00 +1.1515501953e+03 1.1515501953e+03 2.5500000000e-03 0.0000e+00 -1.0000e+00
        2 -1    0    0  501    0 +0.0000000000e+00 -0.0000000000e+00 -4.8464013323e+03 4.8464013323e+03 2.5500000000e-03 0.0000e+00 1.0000e+00
  1000011  2    1    2    0    0 -4.3429245250e+02 -1.2584713710e+01 -1.1191068574e+03 2.5503155438e+03 2.2500979769e+03 4.5532e+02 0.0000e+00
 -1000011  2    1    2    0    0 +4.3429245250e+02 +1.2584713710e+01 -2.5757442796e+03 3.4476359838e+03 2.2501037696e+03 8.4722e+02 0.0000e+00
       11  1    3    3    0    0 +2.5337721378e-02 -5.2782549646e-02 +3.3744916735e-02 6.7579417308e-02 5.1100000000e-04 0.0000e+00 1.0000e+00
  1000022  1    3    3    0    0 -4.3431779022e+02 -1.2531931160e+01 -1.1191406023e+03 2.5502479644e+03 2.2500000000e+03 0.0000e+00 0.0000e+00
      -11  1    4    4    0    0 -9.6341407705e-03 +9.6273351161e-02 -7.1683155917e-02 1.2041640372e-01 5.1100000000e-04 0.0000e+00 -1.0000e+00
  1000022  1    4    4    0    0 +4.3430208664e+02 +1.2488440358e+01 -2.5756725964e+03 3.4475155674e+03 2.2500000000e+03 0.0000e+00 0.0000e+00
<mgrwt>
<rscale>  0 0.47247749E+04</rscale>
<asrwt>0</asrwt>
<pdfrwt beam="1">  1        2 0.74560019E+00 0.47247749E+04</pdfrwt>
<pdfrwt beam="2">  1       -2 0.17716157E+00 0.47247749E+04</pdfrwt>
<totfact> 0.73348949E-03</totfact>
</mgrwt>
</event>
<event>
 8      1 +1.2359593e-08 4.78059500e+03 7.81860800e-03 7.86327400e-02
       -2 -1    0    0    0  501 -0.0000000000e+00 +0.0000000000e+00 +1.1761228423e+03 1.1761228423e+03 2.5500000000e-03 0.0000e+00 -1.0000e+00
        2 -1    0    0  501    0 +0.0000000000e+00 -0.0000000000e+00 -4.8579289526e+03 4.8579289526e+03 2.5500000000e-03 0.0000e+00 1.0000e+00
  1000011  2    1    2    0    0 +7.4918328426e-01 -5.1769062217e+02 -2.6215932419e+03 3.4933803067e+03 2.2501001532e+03 1.4770e+02 0.0000e+00
 -1000011  2    1    2    0    0 -7.4918328426e-01 +5.1769062217e+02 -1.0602128684e+03 2.5406714882e+03 2.2501013629e+03 7.8320e+01 0.0000e+00
       11  1    3    3    0    0 -8.5989712655e-02 +1.7093727856e-02 -5.6242038198e-02 1.0416263174e-01 5.1100000000e-04 0.0000e+00 1.0000e+00
  1000022  1    3    3    0    0 +8.3517299692e-01 -5.1770771590e+02 -2.6215369999e+03 3.4932761440e+03 2.2500000000e+03 0.0000e+00 0.0000e+00
      -11  1    4    4    0    0 -5.3805279438e-02 -5.4727680349e-02 -8.3698585194e-02 1.1355985553e-01 5.1100000000e-04 0.0000e+00 -1.0000e+00
  1000022  1    4    4    0    0 -6.9537800482e-01 +5.1774534985e+02 -1.0601291698e+03 2.5405579284e+03 2.2500000000e+03 0.0000e+00 0.0000e+00
<mgrwt>
<rscale>  0 0.47805946E+04</rscale>
<asrwt>0</asrwt>
<pdfrwt beam="1">  1        2 0.74737367E+00 0.47805946E+04</pdfrwt>
<pdfrwt beam="2">  1       -2 0.18094198E+00 0.47805946E+04</pdfrwt>
<totfact> 0.66632098E-03</totfact>
</mgrwt>
</event>
<event>
 8      1 +1.2359593e-08 4.62206000e+03 7.81860800e-03 7.88960900e-02
       -2 -1    0    0    0  501 -0.0000000000e+00 +0.0000000000e+00 +1.7600098356e+03 1.7600098356e+03 2.5500000000e-03 0.0000e+00 -1.0000e+00
        2 -1    0    0  501    0 +0.0000000000e+00 -0.0000000000e+00 -3.0345625016e+03 3.0345625016e+03 2.5500000000e-03 0.0000e+00 1.0000e+00
  1000011  2    1    2    0    0 -2.2603541243e+02 -4.2725851621e+02 -4.1906458142e+02 2.3392791538e+03 2.2501044395e+03 1.0571e+02 0.0000e+00
 -1000011  2    1    2    0    0 +2.2603541243e+02 +4.2725851621e+02 -8.5548808467e+02 2.4552931834e+03 2.2501028656e+03 5.0639e+02 0.0000e+00
       11  1    3    3    0    0 -5.4272681347e-03 -1.2544088816e-01 -3.2726635487e-02 1.2975424805e-01 5.1100000000e-04 0.0000e+00 1.0000e+00
  1000022  1    3    3    0    0 -2.2602998516e+02 -4.2713307532e+02 -4.1903185478e+02 2.3391493996e+03 2.2500000000e+03 0.0000e+00 0.0000e+00
      -11  1    4    4    0    0 -6.4103466058e-02 +9.0758909926e-02 -4.0010717305e-02 1.1809975645e-01 5.1100000000e-04 0.0000e+00 -1.0000e+00
  1000022  1    4    4    0    0 +2.2609951589e+02 +4.2716775730e+02 -8.5544807395e+02 2.4551750836e+03 2.2500000000e+03 0.0000e+00 0.0000e+00
<mgrwt>
<rscale>  0 0.46220601E+04</rscale>
<asrwt>0</asrwt>
<pdfrwt beam="1">  1        2 0.46685577E+00 0.46220601E+04</pdfrwt>
<pdfrwt beam="2">  1       -2 0.27077074E+00 0.46220601E+04</pdfrwt>
<totfact> 0.59536995E-02</totfact>
</mgrwt>
</event>
<event>
 8      1 +1.2359593e-08 5.29143400e+03 7.81860800e-03 7.78505900e-02
       -2 -1    0    0    0  501 -0.0000000000e+00 +0.0000000000e+00 +2.6313072127e+03 2.6313072127e+03 2.5500000000e-03 0.0000e+00 -1.0000e+00
        2 -1    0    0  501    0 +0.0000000000e+00 -0.0000000000e+00 -2.6602056103e+03 2.6602056103e+03 2.5500000000e-03 0.0000e+00 1.0000e+00
  1000011  2    1    2    0    0 -3.5420397880e+02 -7.7566711863e+02 +1.0854561235e+03 2.6397521385e+03 2.2501014242e+03 1.8189e+03 0.0000e+00
 -1000011  2    1    2    0    0 +3.5420397880e+02 +7.7566711863e+02 -1.1143545211e+03 2.6517606845e+03 2.2500952850e+03 1.8335e+03 0.0000e+00
       11  1    3    3    0    0 -4.8552568700e-02 -2.1794573776e-02 -5.5193938868e-02 7.6674552534e-02 5.1100000000e-04 0.0000e+00 1.0000e+00
  1000022  1    3    3    0    0 -3.5415542623e+02 -7.7564532405e+02 +1.0855113174e+03 2.6396754639e+03 2.2500000000e+03 0.0000e+00 0.0000e+00
      -11  1    4    4    0    0 +7.5247575226e-02 -3.5484317239e-02 -7.0791037167e-03 8.3496759457e-02 5.1100000000e-04 0.0000e+00 -1.0000e+00
  1000022  1    4    4    0    0 +3.5412873122e+02 +7.7570260295e+02 -1.1143474420e+03 2.6516771877e+03 2.2500000000e+03 0.0000e+00 0.0000e+00
<mgrwt>
<rscale>  0 0.52914339E+04</rscale>
<asrwt>0</asrwt>
<pdfrwt beam="1">  1        2 0.40926240E+00 0.52914339E+04</pdfrwt>
<pdfrwt beam="2">  1       -2 0.40481649E+00 0.52914339E+04</pdfrwt>
<totfact> 0.13783714E-02</totfact>
</mgrwt>
</event>
<event>
 8      1 +1.2359593e-08 5.24828100e+03 7.81860800e-03 7.79130900e-02
        2 -1    0    0  501    0 +0.0000000000e+00 +0.0000000000e+00 +3.5097078775e+03 3.5097078775e+03 2.5500000000e-03 0.0000e+00 1.0000e+00
       -2 -1    0    0    0  501 -0.0000000000e+00 -0.0000000000e+00 -1.9620191341e+03 1.9620191342e+03 2.5500000000e-03 0.0000e+00 -1.0000e+00
  1000011  2    1    2    0    0 +1.0689608661e+03 -7.0781402236e+02 +1.2155387945e+03 2.8607980918e+03 2.2501006950e+03 1.4987e+03 0.0000e+00
 -1000011  2    1    2    0    0 -1.0689608661e+03 +7.0781402236e+02 +3.3214994883e+02 2.6109289199e+03 2.2500996006e+03 2.8820e+03 0.0000e+00
       11  1    3    3    0    0 +8.8433074823e-02 +3.1292016017e-02 -2.0134778970e-02 9.5944092381e-02 5.1100000000e-04 0.0000e+00 1.0000e+00
  1000022  1    3    3    0    0 +1.0688724330e+03 -7.0784531438e+02 +1.2155589293e+03 2.8607021477e+03 2.2500000000e+03 0.0000e+00 0.0000e+00
      -11  1    4    4    0    0 -1.9959477649e-02 -1.3380597469e-02 -7.6924820305e-02 8.0592243520e-02 5.1100000000e-04 0.0000e+00 -1.0000e+00
  1000022  1    4    4    0    0 -1.0689409066e+03 +7.0782740296e+02 +3.3222687365e+02 2.6108483276e+03 2.2500000000e+03 0.0000e+00 0.0000e+00
<mgrwt>
<rscale>  0 0.52482812E+04</rscale>
<asrwt>0</asrwt>
<pdfrwt beam="1">  1        2 0.53995506E+00 0.52482812E+04</pdfrwt>
<pdfrwt beam="2">  1       -2 0.30184910E+00 0.52482812E+04</pdfrwt>
<totfact> 0.17654666E-02</totfact>
</mgrwt>
</event>
<event>
 8      1 +1.2359593e-08 4.90234000e+03 7.81860800e-03 7.84375100e-02
        2 -1    0    0  501    0 +0.0000000000e+00 +0.0000000000e+00 +2.7386716400e+03 2.7386716400e+03 2.5500000000e-03 0.0000e+00 1.0000e+00
       -2 -1    0    0    0  501 -0.0000000000e+00 -0.0000000000e+00 -2.1938502008e+03 2.1938502008e+03 2.5500000000e-03 0.0000e+00 -1.0000e+00
  1000011  2    1    2    0    0 -7.8489484491e+02 -5.0833018702e+02 +4.6389274644e+00 2.4366845210e+03 2.2501000952e+03 1.9095e+02 0.0000e+00
 -1000011  2    1    2    0    0 +7.8489484491e+02 +5.0833018702e+02 +5.4018251175e+02 2.4958373199e+03 2.2500993944e+03 1.8806e+02 0.0000e+00
       11  1    3    3    0    0 -6.1062195500e-02 -1.2322937130e-01 -8.4565837674e-03 1.3778912961e-01 5.1100000000e-04 0.0000e+00 1.0000e+00
  1000022  1    3    3    0    0 -7.8483378272e+02 -5.0820695765e+02 +4.6473840482e+00 2.4365467318e+03 2.2500000000e+03 0.0000e+00 0.0000e+00
      -11  1    4    4    0    0 +4.2561841838e-02 +1.7294752818e-02 -7.7169922368e-02 8.9811337506e-02 5.1100000000e-04 0.0000e+00 -1.0000e+00
  1000022  1    4    4    0    0 +7.8485228307e+02 +5.0831289226e+02 +5.4025968167e+02 2.4957475085e+03 2.2500000000e+03 0.0000e+00 0.0000e+00
<mgrwt>
<rscale>  0 0.49023404E+04</rscale>
<asrwt>0</asrwt>
<pdfrwt beam="1">  1        2 0.42133410E+00 0.49023404E+04</pdfrwt>
<pdfrwt beam="2">  1       -2 0.33751542E+00 0.49023404E+04</pdfrwt>
<totfact> 0.34422836E-02</totfact>
</mgrwt>
</event>
<event>
 8      1 +1.2359593e-08 4.54014500e+03 7.81860800e-03 7.90364600e-02
       -2 -1    0    0    0  501 -0.0000000000e+00 +0.0000000000e+00 +1.1118793996e+03 1.1118793996e+03 2.5500000000e-03 0.0000e+00 -1.0000e+00
        2 -1    0    0  501    0 +0.0000000000e+00 -0.0000000000e+00 -4.6347011448e+03 4.6347011448e+03 2.5500000000e-03 0.0000e+00 1.0000e+00
  1000011  2    1    2    0    0 +1.9283838878e+02 -2.2984246389e+02 -1.7404313170e+03 2.8604297264e+03 2.2500984085e+03 5.6574e+02 0.0000e+00
 -1000011  2    1    2    0    0 -1.9283838878e+02 +2.2984246389e+02 -1.7823904281e+03 2.8861508180e+03 2.2500970431e+03 3.8246e+02 0.0000e+00
       11  1    3    3    0    0 -3.5349426749e-02 -2.5829996123e-02 -1.8377809390e-01 1.8892172795e-01 5.1100000000e-04 0.0000e+00 1.0000e+00
  1000022  1    3    3    0    0 +1.9287373821e+02 -2.2981663389e+02 -1.7402475389e+03 2.8602408047e+03 2.2500000000e+03 0.0000e+00 0.0000e+00
      -11  1    4    4    0    0 -7.0917254568e-02 -1.2117193138e-02 -1.6939593343e-01 1.8404164324e-01 5.1100000000e-04 0.0000e+00 -1.0000e+00
  1000022  1    4    4    0    0 -1.9276747153e+02 +2.2985458108e+02 -1.7822210322e+03 2.8859667763e+03 2.2500000000e+03 0.0000e+00 0.0000e+00
<mgrwt>
<rscale>  0 0.45401448E+04</rscale>
<asrwt>0</asrwt>
<pdfrwt beam="1">  1        2 0.71303094E+00 0.45401448E+04</pdfrwt>
<pdfrwt beam="2">  1       -2 0.17105837E+00 0.45401448E+04</pdfrwt>
<totfact> 0.14089650E-02</totfact>
</mgrwt>
</event>
<event>
 8      1 +1.2359593e-08 4.99863700e+03 7.81860800e-03 7.82871800e-02
        2 -1    0    0  501    0 +0.0000000000e+00 +0.0000000000e+00 +3.1588141122e+03 3.1588141122e+03 2.5500000000e-03 0.0000e+00 1.0000e+00
       -2 -1    0    0    0  501 -0.0000000000e+00 -0.0000000000e+00 -1.9775117650e+03 1.9775117650e+03 2.5500000000e-03 0.0000e+00 -1.0000e+00
  1000011  2    1    2    0    0 -1.6230752460e+02 -6.7593160707e+02 +1.4506067259e+03 2.7659429581e+03 2.2501007320e+03 5.1822e+02 0.0000e+00
 -1000011  2    1    2    0    0 +1.6230752460e+02 +6.7593160707e+02 -2.6930437866e+02 2.3703829192e+03 2.2501029010e+03 6.9633e+02 0.0000e+00
       11  1    3    3    0    0 +5.4183820992e-02 -1.0623823376e-01 +1.1111673855e-01 1.6300196070e-01 5.1100000000e-04 0.0000e+00 1.0000e+00
  1000022  1    3    3    0    0 -1.6236170842e+02 -6.7582536884e+02 +1.4504956092e+03 2.7657799561e+03 2.2500000000e+03 0.0000e+00 0.0000e+00
      -11  1    4    4    0    0 -2.3792555029e-02 +8.6512626653e-02 -9.6358635693e-02 1.3166536206e-01 5.1100000000e-04 0.0000e+00 -1.0000e+00
  1000022  1    4    4    0    0 +1.6233131715e+02 +6.7584509445e+02 -2.6920802003e+02 2.3702512538e+03 2.2500000000e+03 0.0000e+00 0.0000e+00
<mgrwt>
<rscale>  0 0.49986366E+04</rscale>
<asrwt>0</asrwt>
<pdfrwt beam="1">  1        2 0.48597140E+00 0.49986366E+04</pdfrwt>
<pdfrwt beam="2">  1       -2 0.30423258E+00 0.49986366E+04</pdfrwt>
<totfact> 0.30041971E-02</totfact>
</mgrwt>
</event>
<event>
 8      1 +1.2359593e-08 6.68022500e+03 7.81860800e-03 7.61134400e-02
       -1 -1    0    0    0  501 -0.0000000000e+00 +0.0000000000e+00 +2.8892488390e+03 2.8892488390e+03 5.0400000000e-03 0.0000e+00 -1.0000e+00
        1 -1    0    0  501    0 +0.0000000000e+00 -0.0000000000e+00 -3.8613328133e+03 3.8613328133e+03 5.0400000000e-03 0.0000e+00 1.0000e+00
  1000011  2    1    2    0    0 +7.2409498918e+02 -1.2239254843e+03 -2.5249797920e+03 3.6689015745e+03 2.2501130347e+03 4.2889e+02 0.0000e+00
 -1000011  2    1    2    0    0 -7.2409498918e+02 +1.2239254843e+03 +1.5528958178e+03 3.0816800778e+03 2.2501021169e+03 4.4111e+03 0.0000e+00
       11  1    3    3    0    0 +1.2908649219e-02 -1.4692114816e-01 -2.6488775240e-01 3.0318020912e-01 5.1100000000e-04 0.0000e+00 1.0000e+00
  1000022  1    3    3    0    0 +7.2408208053e+02 -1.2237785632e+03 -2.5247149043e+03 3.6685983943e+03 2.2500000000e+03 0.0000e+00 0.0000e+00
      -11  1    4    4    0    0 -1.3909387915e-02 +1.6115350491e-01 +6.3078109777e-02 1.7361748720e-01 5.1100000000e-04 0.0000e+00 -1.0000e+00
  1000022  1    4    4    0    0 -7.2408107979e+02 +1.2237643308e+03 +1.5528327397e+03 3.0815064603e+03 2.2500000000e+03 0.0000e+00 0.0000e+00
<mgrwt>
<rscale>  0 0.66802250E+04</rscale>
<asrwt>0</asrwt>
<pdfrwt beam="1">  1        1 0.59405120E+00 0.66802250E+04</pdfrwt>
<pdfrwt beam="2">  1       -1 0.44449982E+00 0.66802250E+04</pdfrwt>
<totfact> 0.28389184E-04</totfact>
</mgrwt>
</event>
<event>
 8      1 +1.2359593e-08 5.06490200e+03 7.81860800e-03 7.81857300e-02
        2 -1    0    0  501    0 +0.0000000000e+00 +0.0000000000e+00 +3.9753121943e+03 3.9753121943e+03 2.5500000000e-03 0.0000e+00 1.0000e+00
       -2 -1    0    0    0  501 -0.0000000000e+00 -0.0000000000e+00 -1.6132839280e+03 1.6132839280e+03 2.5500000000e-03 0.0000e+00 -1.0000e+00
  1000011  2    1    2    0    0 -1.1360245168e+03 +2.3125778126e+02 +1.2687120912e+03 2.8313614558e+03 2.2500989887e+03 5.0221e+02 0.0000e+00
 -1000011  2    1    2    0    0 +1.1360245168e+03 -2.3125778126e+02 +1.0933161752e+03 2.7572346664e+03 2.2501046382e+03 3.0005e+02 0.0000e+00
       11  1    3    3    0    0 -1.5727554851e-01 +3.6045196193e-02 +9.5629678766e-02 1.8756372314e-01 5.1100000000e-04 0.0000e+00 1.0000e+00
  1000022  1    3    3    0    0 -1.1358672412e+03 +2.3122173606e+02 +1.2686164615e+03 2.8311738921e+03 2.2500000000e+03 0.0000e+00 0.0000e+00
      -11  1    4    4    0    0 +8.2986453929e-02 +7.6476614978e-02 -7.8827599621e-04 1.1285524617e-01 5.1100000000e-04 0.0000e+00 -1.0000e+00
  1000022  1    4    4    0    0 +1.1359415303e+03 -2.3133425787e+02 +1.0933169634e+03 2.7571218112e+03 2.2500000000e+03 0.0000e+00 0.0000e+00
<mgrwt>
<rscale>  0 0.50649017E+04</rscale>
<asrwt>0</asrwt>
<pdfrwt beam="1">  1        2 0.61158650E+00 0.50649017E+04</pdfrwt>
<pdfrwt beam="2">  1       -2 0.24819753E+00 0.50649017E+04</pdfrwt>
<totfact> 0.17025641E-02</totfact>
</mgrwt>
</event>
<event>
 8      1 +1.2359593e-08 4.82974300e+03 7.81860800e-03 7.85532100e-02
       -2 -1    0    0    0  501 -0.0000000000e+00 +0.0000000000e+00 +2.0161035410e+03 2.0161035410e+03 2.5500000000e-03 0.0000e+00 -1.0000e+00
        2 -1    0    0  501    0 +0.0000000000e+00 -0.0000000000e+00 -2.8925122729e+03 2.8925122729e+03 2.5500000000e-03 0.0000e+00 1.0000e+00
  1000011  2    1    2    0    0 +3.2948578679e+02 -8.1227083333e+02 -4.2071930177e+02 2.4511887703e+03 2.2501059678e+03 1.0606e+03 0.0000e+00
 -1000011  2    1    2    0    0 -3.2948578679e+02 +8.1227083333e+02 -4.5568943011e+02 2.4574270436e+03 2.2501000039e+03 7.5546e+02 0.0000e+00
       11  1    3    3    0    0 -8.6188829491e-02 -6.8015981712e-02 -1.5414710218e-02 1.1087182829e-01 5.1100000000e-04 0.0000e+00 1.0000e+00
  1000022  1    3    3    0    0 +3.2957197562e+02 -8.1220281735e+02 -4.2070388706e+02 2.4510778984e+03 2.2500000000e+03 0.0000e+00 0.0000e+00
      -11  1    4    4    0    0 +1.9303033305e-02 +3.6710350157e-02 +7.6409370362e-02 8.6941988624e-02 5.1100000000e-04 0.0000e+00 -1.0000e+00
  1000022  1    4    4    0    0 -3.2950508983e+02 +8.1223412298e+02 -4.5576583948e+02 2.4573401017e+03 2.2500000000e+03 0.0000e+00 0.0000e+00
<mgrwt>
<rscale>  0 0.48297429E+04</rscale>
<asrwt>0</asrwt>
<pdfrwt beam="1">  1        2 0.44500189E+00 0.48297429E+04</pdfrwt>
<pdfrwt beam="2">  1       -2 0.31016977E+00 0.48297429E+04</pdfrwt>
<totfact> 0.41234791E-02</totfact>
</mgrwt>
</event>
<event>
 8      1 +1.2359593e-08 6.16298400e+03 7.81860800e-03 7.67051600e-02
       -2 -1    0    0    0  501 -0.0000000000e+00 +0.0000000000e+00 +3.1483298800e+03 3.1483298800e+03 2.5500000000e-03 0.0000e+00 -1.0000e+00
        2 -1    0    0  501    0 +0.0000000000e+00 -0.0000000000e+00 -3.0160725994e+03 3.0160725994e+03 2.5500000000e-03 0.0000e+00 1.0000e+00
  1000011  2    1    2    0    0 -3.5348633008e+02 -1.8934506847e+03 +9.1634081273e+02 3.1004429497e+03 2.2501017573e+03 3.7864e+02 0.0000e+00
 -1000011  2    1    2    0    0 +3.5348633008e+02 +1.8934506847e+03 -7.8408353221e+02 3.0639595297e+03 2.2501006496e+03 1.9096e+03 0.0000e+00
       11  1    3    3    0    0 -5.8822907417e-02 -1.4852692834e-01 -2.9684356985e-02 1.6248632176e-01 5.1100000000e-04 0.0000e+00 1.0000e+00
  1000022  1    3    3    0    0 -3.5342750717e+02 -1.8933021578e+03 +9.1637049709e+02 3.1002804634e+03 2.2500000000e+03 0.0000e+00 0.0000e+00
      -11  1    4    4    0    0 +9.9445070665e-02 +4.7965501408e-02 -7.7392002395e-02 1.3483246650e-01 5.1100000000e-04 0.0000e+00 -1.0000e+00
  1000022  1    4    4    0    0 +3.5338688501e+02 +1.8934027192e+03 -7.8400614021e+02 3.0638246973e+03 2.2500000000e+03 0.0000e+00 0.0000e+00
<mgrwt>
<rscale>  0 0.61629835E+04</rscale>
<asrwt>0</asrwt>
<pdfrwt beam="1">  1        2 0.46401117E+00 0.61629835E+04</pdfrwt>
<pdfrwt beam="2">  1       -2 0.48435844E+00 0.61629835E+04</pdfrwt>
<totfact> 0.23626185E-03</totfact>
</mgrwt>
</event>
<event>
 8      1 +1.2359593e-08 4.58486300e+03 7.81860800e-03 7.89594600e-02
        2 -1    0    0  501    0 +0.0000000000e+00 +0.0000000000e+00 +2.7383221375e+03 2.7383221375e+03 2.5500000000e-03 0.0000e+00 1.0000e+00
       -2 -1    0    0    0  501 -0.0000000000e+00 -0.0000000000e+00 -1.9191467987e+03 1.9191467987e+03 2.5500000000e-03 0.0000e+00 -1.0000e+00
  1000011  2    1    2    0    0 -2.1112481235e+02 +1.6783487747e+02 +7.6081369320e+02 2.3905116951e+03 2.2501036545e+03 2.4975e+02 0.0000e+00
 -1000011  2    1    2    0    0 +2.1112481235e+02 -1.6783487747e+02 +5.8361645641e+01 2.2669572411e+03 2.2500992909e+03 9.9569e+01 0.0000e+00
       11  1    3    3    0    0 -2.2497057124e-02 +1.0955028131e-01 +2.0029323456e-02 1.1361697244e-01 5.1100000000e-04 0.0000e+00 1.0000e+00
  1000022  1    3    3    0    0 -2.1110231529e+02 +1.6772532719e+02 +7.6079366387e+02 2.3903980781e+03 2.2500000000e+03 0.0000e+00 0.0000e+00
      -11  1    4    4    0    0 +7.7059319557e-02 -7.0047643668e-02 -3.5427888705e-02 1.1000094256e-01 5.1100000000e-04 0.0000e+00 -1.0000e+00
  1000022  1    4    4    0    0 +2.1104775303e+02 -1.6776482983e+02 +5.8397073529e+01 2.2668472402e+03 2.2500000000e+03 0.0000e+00 0.0000e+00
<mgrwt>
<rscale>  0 0.45848630E+04</rscale>
<asrwt>0</asrwt>
<pdfrwt beam="1">  1        2 0.42128033E+00 0.45848630E+04</pdfrwt>
<pdfrwt beam="2">  1       -2 0.29525335E+00 0.45848630E+04</pdfrwt>
<totfact> 0.64409123E-02</totfact>
</mgrwt>
</event>
<event>
 8      1 +1.2359593e-08 4.78366300e+03 7.81860800e-03 7.86277400e-02
        2 -1    0    0  501    0 +0.0000000000e+00 +0.0000000000e+00 +3.1238681495e+03 3.1238681495e+03 2.5500000000e-03 0.0000e+00 1.0000e+00
       -2 -1    0    0    0  501 -0.0000000000e+00 -0.0000000000e+00 -1.8313379266e+03 1.8313379266e+03 2.5500000000e-03 0.0000e+00 -1.0000e+00
  1000011  2    1    2    0    0 +7.8459490438e+02 +1.1565868579e+02 +4.7005811198e+02 2.4316410070e+03 2.2501016116e+03 5.5638e+02 0.0000e+00
 -1000011  2    1    2    0    0 -7.8459490438e+02 -1.1565868579e+02 +8.2247211093e+02 2.5235650691e+03 2.2501009287e+03 6.8454e+02 0.0000e+00
       11  1    3    3    0    0 +8.6839832502e-02 -4.5328120778e-02 +9.8519114432e-02 1.3893189614e-01 5.1100000000e-04 0.0000e+00 1.0000e+00
  1000022  1    3    3    0    0 +7.8450806455e+02 +1.1570401391e+02 +4.6995959286e+02 2.4315020751e+03 2.2500000000e+03 0.0000e+00 0.0000e+00
      -11  1    4    4    0    0 -2.6708473842e-02 +8.7394616363e-02 +7.6631313582e-02 1.1926349085e-01 5.1100000000e-04 0.0000e+00 -1.0000e+00
  1000022  1    4    4    0    0 -7.8456819590e+02 -1.1574608040e+02 +8.2239547962e+02 2.5234458056e+03 2.2500000000e+03 0.0000e+00 0.0000e+00
<mgrwt>
<rscale>  0 0.47836631E+04</rscale>
<asrwt>0</asrwt>
<pdfrwt beam="1">  1        2 0.48059509E+00 0.47836631E+04</pdfrwt>
<pdfrwt beam="2">  1       -2 0.28174430E+00 0.47836631E+04</pdfrwt>
<totfact> 0.44179378E-02</totfact>
</mgrwt>
</event>
<event>
 8      1 +1.2359593e-08 4.89405900e+03 7.81860800e-03 7.84506100e-02
        2 -1    0    0  501    0 +0.0000000000e+00 +0.0000000000e+00 +2.6875890476e+03 2.6875890476e+03 2.5500000000e-03 0.0000e+00 1.0000e+00
       -2 -1    0    0    0  501 -0.0000000000e+00 -0.0000000000e+00 -2.2280015927e+03 2.2280015927e+03 2.5500000000e-03 0.0000e+00 -1.0000e+00
  1000011  2    1    2    0    0 -1.2705596624e+02 +6.4337069761e+02 -4.7681037504e+02 2.3917349657e+03 2.2501064285e+03 2.5571e+03 0.0000e+00
 -1000011  2    1    2    0    0 +1.2705596624e+02 -6.4337069761e+02 +9.3639782992e+02 2.5238556746e+03 2.2500972195e+03 8.9896e+02 0.0000e+00
       11  1    3    3    0    0 -9.1097067423e-02 +7.9548965636e-02 -7.1884417545e-02 1.4069237294e-01 5.1100000000e-04 0.0000e+00 1.0000e+00
  1000022  1    3    3    0    0 -1.2696486918e+02 +6.4329114865e+02 -4.7673849062e+02 2.3915942734e+03 2.2500000000e+03 0.0000e+00 0.0000e+00
      -11  1    4    4    0    0 -7.3206048877e-03 -1.2780951638e-01 +5.1934489838e-02 1.3815323226e-01 5.1100000000e-04 0.0000e+00 -1.0000e+00
  1000022  1    4    4    0    0 +1.2706328685e+02 -6.4324288810e+02 +9.3634589543e+02 2.5237175214e+03 2.2500000000e+03 0.0000e+00 0.0000e+00
<mgrwt>
<rscale>  0 0.48940587E+04</rscale>
<asrwt>0</asrwt>
<pdfrwt beam="1">  1        2 0.41347524E+00 0.48940587E+04</pdfrwt>
<pdfrwt beam="2">  1       -2 0.34276948E+00 0.48940587E+04</pdfrwt>
<totfact> 0.34258354E-02</totfact>
</mgrwt>
</event>
<event>
 8      1 +1.2359593e-08 4.55243700e+03 7.81860800e-03 7.90152000e-02
        2 -1    0    0  501    0 +0.0000000000e+00 +0.0000000000e+00 +3.4182139859e+03 3.4182139859e+03 2.5500000000e-03 0.0000e+00 1.0000e+00
       -2 -1    0    0    0  501 -0.0000000000e+00 -0.0000000000e+00 -1.5157540163e+03 1.5157540163e+03 2.5500000000e-03 0.0000e+00 -1.0000e+00
  1000011  2    1    2    0    0 +1.6635721979e+02 -1.5371420774e+02 +6.7084696312e+02 2.3588742597e+03 2.2500998518e+03 1.8031e+03 0.0000e+00
 -1000011  2    1    2    0    0 -1.6635721979e+02 +1.5371420774e+02 +1.2316130064e+03 2.5750937425e+03 2.2500965319e+03 1.5467e+02 0.0000e+00
       11  1    3    3    0    0 +7.8475187409e-02 +5.3466427498e-02 -7.2443155028e-03 9.5235260384e-02 5.1100000000e-04 0.0000e+00 1.0000e+00
  1000022  1    3    3    0    0 +1.6627874460e+02 -1.5376767417e+02 +6.7085420744e+02 2.3587790244e+03 2.2500000000e+03 0.0000e+00 0.0000e+00
      -11  1    4    4    0    0 +8.4339774727e-03 -6.7307864964e-02 -1.9333689673e-02 7.0537458939e-02 5.1100000000e-04 0.0000e+00 -1.0000e+00
  1000022  1    4    4    0    0 -1.6636565377e+02 +1.5378151561e+02 +1.2316323401e+03 2.5750232050e+03 2.2500000000e+03 0.0000e+00 0.0000e+00
<mgrwt>
<rscale>  0 0.45524374E+04</rscale>
<asrwt>0</asrwt>
<pdfrwt beam="1">  1        2 0.52587907E+00 0.45524374E+04</pdfrwt>
<pdfrwt beam="2">  1       -2 0.23319293E+00 0.45524374E+04</pdfrwt>
<totfact> 0.56984069E-02</totfact>
</mgrwt>
</event>
<event>
 8      1 +1.2359593e-08 4.60174400e+03 7.81860800e-03 7.89306300e-02
       -2 -1    0    0    0  501 -0.0000000000e+00 +0.0000000000e+00 +3.0493217309e+03 3.0493217309e+03 2.5500000000e-03 0.0000e+00 -1.0000e+00
        2 -1    0    0  501    0 +0.0000000000e+00 -0.0000000000e+00 -1.7361274006e+03 1.7361274006e+03 2.5500000000e-03 0.0000e+00 1.0000e+00
  1000011  2    1    2    0    0 -3.0432718854e+02 +2.3394125624e+02 +9.5748937392e+02 2.4752945712e+03 2.2501008342e+03 2.0448e+03 0.0000e+00
 -1000011  2    1    2    0    0 +3.0432718854e+02 -2.3394125624e+02 +3.5570495646e+02 2.3101545603e+03 2.2500987816e+03 1.8192e+03 0.0000e+00
       11  1    3    3    0    0 +8.2799201336e-02 +3.9663145734e-02 +5.0278940161e-02 1.0467619411e-01 5.1100000000e-04 0.0000e+00 1.0000e+00
  1000022  1    3    3    0    0 -3.0440998774e+02 +2.3390159310e+02 +9.5743909498e+02 2.4751898950e+03 2.2500000000e+03 0.0000e+00 0.0000e+00
      -11  1    4    4    0    0 +3.6815200279e-02 -5.5651595116e-02 +1.0275214288e-01 1.2251825501e-01 5.1100000000e-04 0.0000e+00 -1.0000e+00
  1000022  1    4    4    0    0 +3.0429037334e+02 -2.3388560465e+02 +3.5560220432e+02 2.3100320420e+03 2.2500000000e+03 0.0000e+00 0.0000e+00
<mgrwt>
<rscale>  0 0.46017436E+04</rscale>
<asrwt>0</asrwt>
<pdfrwt beam="1">  1        2 0.26709653E+00 0.46017436E+04</pdfrwt>
<pdfrwt beam="2">  1       -2 0.46912641E+00 0.46017436E+04</pdfrwt>
<totfact> 0.18328327E-02</totfact>
</mgrwt>
</event>
<event>
 8      1 +1.2359593e-08 4.91368100e+03 7.81860800e-03 7.84196200e-02
        2 -1    0    0  501    0 +0.0000000000e+00 +0.0000000000e+00 +3.0851321568e+03 3.0851321568e+03 2.5500000000e-03 0.0000e+00 1.0000e+00
       -2 -1    0    0    0  501 -0.0000000000e+00 -0.0000000000e+00 -1.9565010556e+03 1.9565010556e+03 2.5500000000e-03 0.0000e+00 -1.0000e+00
  1000011  2    1    2    0    0 -4.7178968034e+02 -7.1134632711e+02 +1.0716392649e+03 2.6343916449e+03 2.2501132249e+03 3.6926e+02 0.0000e+00
 -1000011  2    1    2    0    0 +4.7178968034e+02 +7.1134632711e+02 +5.6991836322e+01 2.4072415675e+03 2.2501032854e+03 1.1656e+03 0.0000e+00
       11  1    3    3    0    0 +2.2134886161e-02 +6.0706138487e-02 +9.5242373598e-02 1.1509369623e-01 5.1100000000e-04 0.0000e+00 1.0000e+00
  1000022  1    3    3    0    0 -4.7181181522e+02 -7.1140703324e+02 +1.0715440225e+03 2.6342765512e+03 2.2500000000e+03 0.0000e+00 0.0000e+00
      -11  1    4    4    0    0 -6.1600140586e-02 -1.6781034383e-02 -4.5551739073e-02 7.8430874958e-02 5.1100000000e-04 0.0000e+00 -1.0000e+00
  1000022  1    4    4    0    0 +4.7185128048e+02 +7.1136310814e+02 +5.7037388061e+01 2.4071631366e+03 2.2500000000e+03 0.0000e+00 0.0000e+00
<mgrwt>
<rscale>  0 0.49136806E+04</rscale>
<asrwt>0</asrwt>
<pdfrwt beam="1">  1        2 0.47463572E+00 0.49136806E+04</pdfrwt>
<pdfrwt beam="2">  1       -2 0.30100016E+00 0.49136806E+04</pdfrwt>
<totfact> 0.35309704E-02</totfact>
</mgrwt>
</event>
<event>
 8      1 +1.2359593e-08 4.92403200e+03 7.81860800e-03 7.84033400e-02
        2 -1    0    0  501    0 +0.0000000000e+00 +0.0000000000e+00 +2.5405428007e+03 2.5405428007e+03 2.5500000000e-03 0.0000e+00 1.0000e+00
       -2 -1    0    0    0  501 -0.0000000000e+00 -0.0000000000e+00 -2.3859166306e+03 2.3859166306e+03 2.5500000000e-03 0.0000e+00 -1.0000e+00
  1000011  2    1    2    0    0 +5.2062318660e+02 +7.7112615381e+02 -2.8738922304e+02 2.4517854558e+03 2.2501056216e+03 9.5114e+02 0.0000e+00
 -1000011  2    1    2    0    0 -5.2062318660e+02 -7.7112615381e+02 +4.4201539323e+02 2.4746739755e+03 2.2500999154e+03 9.7404e+02 0.0000e+00
       11  1    3    3    0    0 -3.4575736407e-02 +7.0178024891e-02 +6.8043801952e-02 1.0368537422e-01 5.1100000000e-04 0.0000e+00 1.0000e+00
  1000022  1    3    3    0    0 +5.2065776234e+02 +7.7105597579e+02 -2.8745726684e+02 2.4516817704e+03 2.2500000000e+03 0.0000e+00 0.0000e+00
      -11  1    4    4    0    0 +7.4406545098e-02 -1.3570178702e-02 +4.3306928444e-02 8.7156381006e-02 5.1100000000e-04 0.0000e+00 -1.0000e+00
  1000022  1    4    4    0    0 -5.2069759315e+02 -7.7111258363e+02 +4.4197208630e+02 2.4745868191e+03 2.2500000000e+03 0.0000e+00 0.0000e+00
<mgrwt>
<rscale>  0 0.49240322E+04</rscale>
<asrwt>0</asrwt>
<pdfrwt beam="1">  1        2 0.39085274E+00 0.49240322E+04</pdfrwt>
<pdfrwt beam="2">  1       -2 0.36706410E+00 0.49240322E+04</pdfrwt>
<totfact> 0.29281180E-02</totfact>
</mgrwt>
</event>
<event>
 8      1 +1.2359593e-08 5.02604900e+03 7.81860800e-03 7.82450200e-02
       -2 -1    0    0    0  501 -0.0000000000e+00 +0.0000000000e+00 +2.2593152127e+03 2.2593152127e+03 2.5500000000e-03 0.0000e+00 -1.0000e+00
        2 -1    0    0  501    0 +0.0000000000e+00 -0.0000000000e+00 -2.7952235174e+03 2.7952235174e+03 2.5500000000e-03 0.0000e+00 1.0000e+00
  1000011  2    1    2    0    0 +7.0246462571e+02 +5.5995526263e+02 -9.3905971986e+02 2.5984194366e+03 2.2500986566e+03 1.3698e+03 0.0000e+00
 -1000011  2    1    2    0    0 -7.0246462571e+02 -5.5995526263e+02 +4.0315141517e+02 2.4561192934e+03 2.2501076582e+03 9.0637e+02 0.0000e+00
       11  1    3    3    0    0 -1.6255939649e-03 -3.6230544513e-02 +4.7717602624e-02 5.9937676379e-02 5.1100000000e-04 0.0000e+00 1.0000e+00
  1000022  1    3    3    0    0 +7.0246625130e+02 +5.5999149317e+02 -9.3910743746e+02 2.5983594989e+03 2.2500000000e+03 0.0000e+00 0.0000e+00
      -11  1    4    4    0    0 -5.6201364136e-02 -4.3666802491e-02 +1.2688308159e-01 1.4548182146e-01 5.1100000000e-04 0.0000e+00 -1.0000e+00
  1000022  1    4    4    0    0 -7.0240842434e+02 -5.5991159582e+02 +4.0302453209e+02 2.4559738116e+03 2.2500000000e+03 0.0000e+00 0.0000e+00
<mgrwt>
<rscale>  0 0.50260486E+04</rscale>
<asrwt>0</asrwt>
<pdfrwt beam="1">  1        2 0.43003439E+00 0.50260486E+04</pdfrwt>
<pdfrwt beam="2">  1       -2 0.34758696E+00 0.50260486E+04</pdfrwt>
<totfact> 0.27247654E-02</totfact>
</mgrwt>
</event>
<event>
 8      1 +1.2359593e-08 6.57489600e+03 7.81860800e-03 7.62294000e-02
       -2 -1    0    0    0  501 -0.0000000000e+00 +0.0000000000e+00 +2.8634499114e+03 2.8634499114e+03 2.5500000000e-03 0.0000e+00 -1.0000e+00
        2 -1    0    0  501    0 +0.0000000000e+00 -0.0000000000e+00 -3.7742286540e+03 3.7742286540e+03 2.5500000000e-03 0.0000e+00 1.0000e+00
  1000011  2    1    2    0    0 -2.3917140454e+03 -1.2353312351e+02 -5.5012672943e+02 3.3318376784e+03 2.2500991953e+03 1.0424e+03 0.0000e+00
 -1000011  2    1    2    0    0 +2.3917140454e+03 +1.2353312351e+02 -3.6065201313e+02 3.3058408870e+03 2.2501016839e+03 6.3160e+01 0.0000e+00
       11  1    3    3    0    0 -1.9025922358e-01 +5.3786649279e-02 +1.8245305999e-02 1.9855661170e-01 5.1100000000e-04 0.0000e+00 1.0000e+00
  1000022  1    3    3    0    0 -2.3915237862e+03 -1.2358691015e+02 -5.5014497474e+02 3.3316391218e+03 2.2500000000e+03 0.0000e+00 0.0000e+00
      -11  1    4    4    0    0 +2.3987156622e-01 +5.4994098548e-02 -3.6528778251e-02 2.4879174337e-01 5.1100000000e-04 0.0000e+00 -1.0000e+00
  1000022  1    4    4    0    0 +2.3914741739e+03 +1.2347812941e+02 -3.6061548435e+02 3.3055920953e+03 2.2500000000e+03 0.0000e+00 0.0000e+00
<mgrwt>
<rscale>  0 0.65748961E+04</rscale>
<asrwt>0</asrwt>
<pdfrwt beam="1">  1        2 0.58065056E+00 0.65748961E+04</pdfrwt>
<pdfrwt beam="2">  1       -2 0.44053076E+00 0.65748961E+04</pdfrwt>
<totfact> 0.13276184E-03</totfact>
</mgrwt>
</event>
<event>
 8      1 +1.2359593e-08 5.78356900e+03 7.81860800e-03 7.71783100e-02
       -4 -1    0    0    0  501 -0.0000000000e+00 +0.0000000000e+00 +2.5482521105e+03 2.5482524270e+03 1.2700000000e+00 0.0000e+00 -1.0000e+00
        4 -1    0    0  501    0 +0.0000000000e+00 -0.0000000000e+00 -3.2816280422e+03 3.2816282880e+03 1.2700000000e+00 0.0000e+00 1.0000e+00
  1000011  2    1    2    0    0 -1.1786240834e+03 +9.6799465941e+01 +1.0230961314e+03 2.7401107076e+03 2.2501013598e+03 2.4417e+03 0.0000e+00
 -1000011  2    1    2    0    0 +1.1786240834e+03 -9.6799465941e+01 -1.7564720632e+03 3.0897700073e+03 2.2501021583e+03 1.8568e+03 0.0000e+00
       11  1    3    3    0    0 -3.3245661902e-02 +5.4480409991e-02 -4.9706555060e-02 8.0897415472e-02 5.1100000000e-04 0.0000e+00 1.0000e+00
  1000022  1    3    3    0    0 -1.1785908378e+03 +9.6744985531e+01 +1.0231458380e+03 2.7400298102e+03 2.2500000000e+03 0.0000e+00 0.0000e+00
      -11  1    4    4    0    0 +2.7468885115e-02 -9.9154209134e-02 -3.8461945785e-02 1.0984388268e-01 5.1100000000e-04 0.0000e+00 -1.0000e+00
  1000022  1    4    4    0    0 +1.1785966146e+03 -9.6700311732e+01 -1.7564336012e+03 3.0896601634e+03 2.2500000000e+03 0.0000e+00 0.0000e+00
<mgrwt>
<rscale>  0 0.57835689E+04</rscale>
<asrwt>0</asrwt>
<pdfrwt beam="1">  1        4 0.50486590E+00 0.57835689E+04</pdfrwt>
<pdfrwt beam="2">  1       -4 0.39203883E+00 0.57835689E+04</pdfrwt>
<totfact> 0.11110069E-05</totfact>
</mgrwt>
</event>
<event>
 8      1 +1.2359593e-08 4.81032200e+03 7.81860800e-03 7.85845200e-02
        2 -1    0    0  501    0 +0.0000000000e+00 +0.0000000000e+00 +3.6018528302e+03 3.6018528302e+03 2.5500000000e-03 0.0000e+00 1.0000e+00
       -2 -1    0    0    0  501 -0.0000000000e+00 -0.0000000000e+00 -1.6060622305e+03 1.6060622305e+03 2.5500000000e-03 0.0000e+00 -1.0000e+00
  1000011  2    1    2    0    0 -1.4670407038e+02 -2.2322903031e+02 +1.2470981693e+02 2.2693364278e+03 2.2501071086e+03 4.7394e+02 0.0000e+00
 -1000011  2    1    2    0    0 +1.4670407038e+02 +2.2322903031e+02 +1.8710807827e+03 2.9385786329e+03 2.2500995094e+03 1.0250e+03 0.0000e+00
       11  1    3    3    0    0 +3.7280130485e-02 -9.4015588055e-02 +5.7169746724e-02 1.1617822408e-01 5.1100000000e-04 0.0000e+00 1.0000e+00
  1000022  1    3    3    0    0 -1.4674135051e+02 -2.2313501472e+02 +1.2465264719e+02 2.2692202496e+03 2.2500000000e+03 0.0000e+00 0.0000e+00
      -11  1    4    4    0    0 -2.7563795146e-02 +1.3801842818e-02 -3.9925935047e-02 5.0443980230e-02 5.1100000000e-04 0.0000e+00 -1.0000e+00
  1000022  1    4    4    0    0 +1.4673163418e+02 +2.2321522846e+02 +1.8711207086e+03 2.9385281889e+03 2.2500000000e+03 0.0000e+00 0.0000e+00
<mgrwt>
<rscale>  0 0.48103221E+04</rscale>
<asrwt>0</asrwt>
<pdfrwt beam="1">  1        2 0.55413120E+00 0.48103221E+04</pdfrwt>
<pdfrwt beam="2">  1       -2 0.24708650E+00 0.48103221E+04</pdfrwt>
<totfact> 0.33987284E-02</totfact>
</mgrwt>
</event>
<event>
 8      1 +1.2359593e-08 5.02970700e+03 7.81860800e-03 7.82394100e-02
        1 -1    0    0  501    0 +0.0000000000e+00 +0.0000000000e+00 +3.8885082959e+03 3.8885082959e+03 5.0400000000e-03 0.0000e+00 -1.0000e+00
       -1 -1    0    0    0  501 -0.0000000000e+00 -0.0000000000e+00 -1.6264560853e+03 1.6264560853e+03 5.0400000000e-03 0.0000e+00 1.0000e+00
  1000011  2    1    2    0    0 -1.5152890264e+02 -9.3314373402e+02 +1.7959967759e+03 3.0302283852e+03 2.2501025333e+03 1.6660e+03 0.0000e+00
 -1000011  2    1    2    0    0 +1.5152890264e+02 +9.3314373402e+02 +4.6605543468e+02 2.4847359960e+03 2.2501082340e+03 1.0467e+02 0.0000e+00
       11  1    3    3    0    0 -4.9506291591e-02 -5.6524818817e-03 -3.3891382677e-02 6.0263669769e-02 5.1100000000e-04 0.0000e+00 1.0000e+00
  1000022  1    3    3    0    0 -1.5147939635e+02 -9.3313808154e+02 +1.7960306673e+03 3.0301681215e+03 2.2500000000e+03 0.0000e+00 0.0000e+00
      -11  1    4    4    0    0 +2.2473918765e-02 +5.9934701500e-02 +1.3192592339e-01 1.4663545062e-01 5.1100000000e-04 0.0000e+00 -1.0000e+00
  1000022  1    4    4    0    0 +1.5150642872e+02 +9.3308379932e+02 +4.6592350875e+02 2.4845893605e+03 2.2500000000e+03 0.0000e+00 0.0000e+00
<mgrwt>
<rscale>  0 0.50297069E+04</rscale>
<asrwt>0</asrwt>
<pdfrwt beam="1">  1        1 0.59823204E+00 0.50297069E+04</pdfrwt>
<pdfrwt beam="2">  1       -1 0.25022402E+00 0.50297069E+04</pdfrwt>
<totfact> 0.59845197E-03</totfact>
</mgrwt>
</event>
<event>
 8      1 +1.2359593e-08 5.29080000e+03 7.81860800e-03 7.78515000e-02
        2 -1    0    0  501    0 +0.0000000000e+00 +0.0000000000e+00 +2.1981901975e+03 2.1981901975e+03 2.5500000000e-03 0.0000e+00 1.0000e+00
       -2 -1    0    0    0  501 -0.0000000000e+00 -0.0000000000e+00 -3.1835925763e+03 3.1835925763e+03 2.5500000000e-03 0.0000e+00 -1.0000e+00
  1000011  2    1    2    0    0 -8.5353543551e+02 -5.8313295925e+02 -1.4396365973e+03 2.8642749141e+03 2.2501001008e+03 2.4452e+03 0.0000e+00
 -1000011  2    1    2    0    0 +8.5353543551e+02 +5.8313295925e+02 +4.5423421857e+02 2.5175078597e+03 2.2501000667e+03 3.1354e+03 0.0000e+00
       11  1    3    3    0    0 -3.3773738063e-02 -5.2811691971e-02 +4.4690666758e-02 7.6988678998e-02 5.1100000000e-04 0.0000e+00 1.0000e+00
  1000022  1    3    3    0    0 -8.5350166177e+02 -5.8308014756e+02 -1.4396812880e+03 2.8641979254e+03 2.2500000000e+03 0.0000e+00 0.0000e+00
      -11  1    4    4    0    0 +3.8746172382e-02 -6.6710133399e-02 -2.7992966541e-02 8.2069330137e-02 5.1100000000e-04 0.0000e+00 -1.0000e+00
  1000022  1    4    4    0    0 +8.5349668934e+02 +5.8319966939e+02 +4.5426221154e+02 2.5174257904e+03 2.2500000000e+03 0.0000e+00 0.0000e+00
<mgrwt>
<rscale>  0 0.52908003E+04</rscale>
<asrwt>0</asrwt>
<pdfrwt beam="1">  1        2 0.33818311E+00 0.52908003E+04</pdfrwt>
<pdfrwt beam="2">  1       -2 0.48978347E+00 0.52908003E+04</pdfrwt>
<totfact> 0.70916113E-03</totfact>
</mgrwt>
</event>
<event>
 8      1 +1.2359593e-08 5.25722000e+03 7.81860800e-03 7.79000900e-02
       -2 -1    0    0    0  501 -0.0000000000e+00 +0.0000000000e+00 +2.0948032872e+03 2.0948032873e+03 2.5500000000e-03 0.0000e+00 -1.0000e+00
        2 -1    0    0  501    0 +0.0000000000e+00 -0.0000000000e+00 -3.2984438834e+03 3.2984438834e+03 2.5500000000e-03 0.0000e+00 1.0000e+00
  1000011  2    1    2    0    0 +6.5847448575e+02 -4.8779586782e+02 +5.1024871322e+02 2.4484364119e+03 2.2501008103e+03 4.6720e+02 0.0000e+00
 -1000011  2    1    2    0    0 -6.5847448575e+02 +4.8779586782e+02 -1.7138893094e+03 2.9448107588e+03 2.2501023051e+03 1.0219e+03 0.0000e+00
       11  1    3    3    0    0 -7.5327870327e-02 -1.3294022777e-02 +2.2321558585e-02 7.9683950277e-02 5.1100000000e-04 0.0000e+00 1.0000e+00
  1000022  1    3    3    0    0 +6.5854981362e+02 -4.8778257380e+02 +5.1022639166e+02 2.4483567279e+03 2.2500000000e+03 0.0000e+00 0.0000e+00
      -11  1    4    4    0    0 +3.2400435951e-02 -3.0604736751e-02 +2.5185786219e-02 5.1195924633e-02 5.1100000000e-04 0.0000e+00 -1.0000e+00
  1000022  1    4    4    0    0 -6.5850688619e+02 +4.8782647256e+02 -1.7139144952e+03 2.9447595629e+03 2.2500000000e+03 0.0000e+00 0.0000e+00
<mgrwt>
<rscale>  0 0.52572202E+04</rscale>
<asrwt>0</asrwt>
<pdfrwt beam="1">  1        2 0.50745291E+00 0.52572202E+04</pdfrwt>
<pdfrwt beam="2">  1       -2 0.32227743E+00 0.52572202E+04</pdfrwt>
<totfact> 0.18439177E-02</totfact>
</mgrwt>
</event>
<event>
 8      1 +1.2359593e-08 5.09222500e+03 7.81860800e-03 7.81443600e-02
        2 -1    0    0  501    0 +0.0000000000e+00 +0.0000000000e+00 +2.1537933265e+03 2.1537933265e+03 2.5500000000e-03 0.0000e+00 1.0000e+00
       -2 -1    0    0    0  501 -0.0000000000e+00 -0.0000000000e+00 -3.0098939036e+03 3.0098939036e+03 2.5500000000e-03 0.0000e+00 -1.0000e+00
  1000011  2    1    2    0    0 -4.5146774208e+02 +9.9611814971e+02 -9.0761084225e+02 2.6613507392e+03 2.2501012924e+03 9.3237e+02 0.0000e+00
 -1000011  2    1    2    0    0 +4.5146774208e+02 -9.9611814971e+02 +5.1510265167e+01 2.5023364909e+03 2.2501022457e+03 2.1308e+03 0.0000e+00
       11  1    3    3    0    0 +6.3630476696e-03 +1.3079857683e-01 +6.9666895582e-03 1.3113943513e-01 5.1100000000e-04 0.0000e+00 1.0000e+00
  1000022  1    3    3    0    0 -4.5147410513e+02 +9.9598735113e+02 -9.0761780894e+02 2.6612195998e+03 2.2500000000e+03 0.0000e+00 0.0000e+00
      -11  1    4    4    0    0 -6.6316133494e-02 +1.8514506421e-02 -2.1585190216e-02 7.2158143168e-02 5.1100000000e-04 0.0000e+00 -1.0000e+00
  1000022  1    4    4    0    0 +4.5153405821e+02 -9.9613666422e+02 +5.1531850357e+01 2.5022643328e+03 2.2500000000e+03 0.0000e+00 0.0000e+00
<mgrwt>
<rscale>  0 0.50922252E+04</rscale>
<asrwt>0</asrwt>
<pdfrwt beam="1">  1        2 0.33135282E+00 0.50922252E+04</pdfrwt>
<pdfrwt beam="2">  1       -2 0.46306060E+00 0.50922252E+04</pdfrwt>
<totfact> 0.11323092E-02</totfact>
</mgrwt>
</event>
<event>
 8      1 +1.2359593e-08 5.03542500e+03 7.81860800e-03 7.82306600e-02
        2 -1    0    0  501    0 +0.0000000000e+00 +0.0000000000e+00 +3.4514574714e+03 3.4514574714e+03 2.5500000000e-03 0.0000e+00 1.0000e+00
       -2 -1    0    0    0  501 -0.0000000000e+00 -0.0000000000e+00 -1.8365797893e+03 1.8365797893e+03 2.5500000000e-03 0.0000e+00 -1.0000e+00
  1000011  2    1    2    0    0 -3.3374530347e+02 -7.8798950220e+01 +1.9376926268e+03 2.9891797653e+03 2.2500994981e+03 3.1837e+02 0.0000e+00
 -1000011  2    1    2    0    0 +3.3374530347e+02 +7.8798950220e+01 -3.2281494474e+02 2.2988574954e+03 2.2500980186e+03 6.3393e+02 0.0000e+00
       11  1    3    3    0    0 +2.0083351498e-02 -9.2689176551e-02 +1.1949041225e-01 1.5255439618e-01 5.1100000000e-04 0.0000e+00 1.0000e+00
  1000022  1    3    3    0    0 -3.3376538682e+02 -7.8706261043e+01 +1.9375731364e+03 2.9890272109e+03 2.2500000000e+03 0.0000e+00 0.0000e+00
      -11  1    4    4    0    0 +9.8952003070e-03 -3.9462503102e-02 -1.0267072334e-01 1.1043886409e-01 5.1100000000e-04 0.0000e+00 -1.0000e+00
  1000022  1    4    4    0    0 +3.3373540827e+02 +7.8838412723e+01 -3.2271227402e+02 2.2987470565e+03 2.2500000000e+03 0.0000e+00 0.0000e+00
<mgrwt>
<rscale>  0 0.50354253E+04</rscale>
<asrwt>0</asrwt>
<pdfrwt beam="1">  1        2 0.53099345E+00 0.50354253E+04</pdfrwt>
<pdfrwt beam="2">  1       -2 0.28255074E+00 0.50354253E+04</pdfrwt>
<totfact> 0.25875012E-02</totfact>
</mgrwt>
</event>
<event>
 8      1 +1.2359593e-08 4.97896000e+03 7.81860800e-03 7.83176100e-02
       -2 -1    0    0    0  501 -0.0000000000e+00 +0.0000000000e+00 +4.1401293197e+03 4.1401293197e+03 2.5500000000e-03 0.0000e+00 -1.0000e+00
        2 -1    0    0  501    0 +0.0000000000e+00 -0.0000000000e+00 -1.4969364042e+03 1.4969364042e+03 2.5500000000e-03 0.0000e+00 1.0000e+00
  1000011  2    1    2    0    0 -8.8131650319e+02 -1.6107607342e+02 +6.6935379608e+02 2.5127017610e+03 2.2501047431e+03 4.9570e+02 0.0000e+00
 -1000011  2    1    2    0    0 +8.8131650319e+02 +1.6107607342e+02 +1.9738391194e+03 3.1243639630e+03 2.2500988920e+03 4.4428e+02 0.0000e+00
       11  1    3    3    0    0 -1.4657343084e-01 +1.9412457287e-02 +6.3202723695e-02 1.6079632882e-01 5.1100000000e-04 0.0000e+00 1.0000e+00
  1000022  1    3    3    0    0 -8.8116992976e+02 -1.6109548588e+02 +6.6929059335e+02 2.5125409646e+03 2.2500000000e+03 0.0000e+00 0.0000e+00
      -11  1    4    4    0    0 +1.3542586826e-01 -3.8092237018e-03 +1.6477276291e-01 2.1331900964e-01 5.1100000000e-04 0.0000e+00 -1.0000e+00
  1000022  1    4    4    0    0 +8.8118107732e+02 +1.6107988264e+02 +1.9736743467e+03 3.1241506440e+03 2.2500000000e+03 0.0000e+00 0.0000e+00
<mgrwt>
<rscale>  0 0.49789598E+04</rscale>
<asrwt>0</asrwt>
<pdfrwt beam="1">  1        2 0.23029791E+00 0.49789598E+04</pdfrwt>
<pdfrwt beam="2">  1       -2 0.63694296E+00 0.49789598E+04</pdfrwt>
<totfact> 0.34925209E-03</totfact>
</mgrwt>
</event>
<event>
 8      1 +1.2359593e-08 4.85110700e+03 7.81860800e-03 7.85189500e-02
        2 -1    0    0  501    0 +0.0000000000e+00 +0.0000000000e+00 +3.0237258444e+03 3.0237258444e+03 2.5500000000e-03 0.0000e+00 1.0000e+00
       -2 -1    0    0    0  501 -0.0000000000e+00 -0.0000000000e+00 -1.9457152603e+03 1.9457152603e+03 2.5500000000e-03 0.0000e+00 -1.0000e+00
  1000011  2    1    2    0    0 +5.8737790181e+02 +5.9388250711e+02 +8.9775766172e+02 2.5625441859e+03 2.2501010319e+03 3.1376e+02 0.0000e+00
 -1000011  2    1    2    0    0 -5.8737790181e+02 -5.9388250711e+02 +1.8025292233e+02 2.4068969188e+03 2.2501005377e+03 5.6459e+02 0.0000e+00
       11  1    3    3    0    0 +9.7639595967e-02 -3.6355163710e-02 +7.7358427456e-02 1.2976816247e-01 5.1100000000e-04 0.0000e+00 1.0000e+00
  1000022  1    3    3    0    0 +5.8728026222e+02 +5.9391886227e+02 +8.9768030329e+02 2.5624144177e+03 2.2500000000e+03 0.0000e+00 0.0000e+00
      -11  1    4    4    0    0 -1.2304064430e-01 +4.6194320682e-03 +4.5122306876e-03 1.2321104002e-01 5.1100000000e-04 0.0000e+00 -1.0000e+00
  1000022  1    4    4    0    0 -5.8725486117e+02 -5.9388712654e+02 +1.8024841010e+02 2.4067737078e+03 2.2500000000e+03 0.0000e+00 0.0000e+00
<mgrwt>
<rscale>  0 0.48511069E+04</rscale>
<asrwt>0</asrwt>
<pdfrwt beam="1">  1        2 0.46518859E+00 0.48511069E+04</pdfrwt>
<pdfrwt beam="2">  1       -2 0.29934081E+00 0.48511069E+04</pdfrwt>
<totfact> 0.39736796E-02</totfact>
</mgrwt>
</event>
<event>
 8      1 +1.2359593e-08 4.81520600e+03 7.81860800e-03 7.85766300e-02
        1 -1    0    0  501    0 +0.0000000000e+00 +0.0000000000e+00 +2.9623334722e+03 2.9623334722e+03 5.0400000000e-03 0.0000e+00 1.0000e+00
       -1 -1    0    0    0  501 -0.0000000000e+00 -0.0000000000e+00 -1.9567520724e+03 1.9567520724e+03 5.0400000000e-03 0.0000e+00 -1.0000e+00
  1000011  2    1    2    0    0 -7.8788531382e+02 +3.0814846069e+02 +3.6615882254e+02 2.4316120904e+03 2.2500991830e+03 7.5667e+02 0.0000e+00
 -1000011  2    1    2    0    0 +7.8788531382e+02 -3.0814846069e+02 +6.3942257726e+02 2.4874734542e+03 2.2500987115e+03 2.2717e+03 0.0000e+00
       11  1    3    3    0    0 +5.3816769569e-02 +6.0400268677e-02 -5.8612329275e-03 8.1111356488e-02 5.1100000000e-04 0.0000e+00 1.0000e+00
  1000022  1    3    3    0    0 -7.8793913058e+02 +3.0808806043e+02 +3.6616468377e+02 2.4315309791e+03 2.2500000000e+03 0.0000e+00 0.0000e+00
      -11  1    4    4    0    0 +9.1104719483e-02 -3.8248987043e-02 -4.8995554093e-02 1.1028998185e-01 5.1100000000e-04 0.0000e+00 -1.0000e+00
  1000022  1    4    4    0    0 +7.8779420910e+02 -3.0811021171e+02 +6.3947157282e+02 2.4873631643e+03 2.2500000000e+03 0.0000e+00 0.0000e+00
<mgrwt>
<rscale>  0 0.48152060E+04</rscale>
<asrwt>0</asrwt>
<pdfrwt beam="1">  1        1 0.45574361E+00 0.48152060E+04</pdfrwt>
<pdfrwt beam="2">  1       -1 0.30103878E+00 0.48152060E+04</pdfrwt>
<totfact> 0.15166641E-02</totfact>
</mgrwt>
</event>
<event>
 8      1 +1.2359593e-08 4.75464600e+03 7.81860800e-03 7.86751200e-02
        2 -1    0    0  501    0 +0.0000000000e+00 +0.0000000000e+00 +3.7415285330e+03 3.7415285330e+03 2.5500000000e-03 0.0000e+00 1.0000e+00
       -2 -1    0    0    0  501 -0.0000000000e+00 -0.0000000000e+00 -1.5105231185e+03 1.5105231185e+03 2.5500000000e-03 0.0000e+00 -1.0000e+00
  1000011  2    1    2    0    0 -3.6308564502e+02 -1.5476149646e+02 +1.8423174643e+03 2.9347655642e+03 2.2500962138e+03 1.1866e+03 0.0000e+00
 -1000011  2    1    2    0    0 +3.6308564502e+02 +1.5476149646e+02 +3.8868795021e+02 2.3172860873e+03 2.2501009270e+03 1.4828e+03 0.0000e+00
       11  1    3    3    0    0 -5.3173099571e-02 -8.7563706178e-02 +1.3640403178e-01 1.7059045018e-01 5.1100000000e-04 0.0000e+00 1.0000e+00
  1000022  1    3    3    0    0 -3.6303247192e+02 -1.5467393276e+02 +1.8421810603e+03 2.9345949737e+03 2.2500000000e+03 0.0000e+00 0.0000e+00
      -11  1    4    4    0    0 +4.5893935098e-02 +6.4689643330e-02 -5.9988291682e-02 9.9447769807e-02 5.1100000000e-04 0.0000e+00 -1.0000e+00
  1000022  1    4    4    0    0 +3.6303975108e+02 +1.5469680682e+02 +3.8874793851e+02 2.3171866396e+03 2.2500000000e+03 0.0000e+00 0.0000e+00
<mgrwt>
<rscale>  0 0.47546463E+04</rscale>
<asrwt>0</asrwt>
<pdfrwt beam="1">  1        2 0.57561977E+00 0.47546463E+04</pdfrwt>
<pdfrwt beam="2">  1       -2 0.23238817E+00 0.47546463E+04</pdfrwt>
<totfact> 0.33236988E-02</totfact>
</mgrwt>
</event>
<event>
 8      1 +1.2359593e-08 4.61154000e+03 7.81860800e-03 7.89139500e-02
       -2 -1    0    0    0  501 -0.0000000000e+00 +0.0000000000e+00 +2.6386118122e+03 2.6386118122e+03 2.5500000000e-03 0.0000e+00 -1.0000e+00
        2 -1    0    0  501    0 +0.0000000000e+00 -0.0000000000e+00 -2.0149139339e+03 2.0149139339e+03 2.5500000000e-03 0.0000e+00 1.0000e+00
  1000011  2    1    2    0    0 +1.4482287714e+02 +3.5274868304e+02 -2.0111100884e+01 2.2822715465e+03 2.2501008103e+03 9.0281e+02 0.0000e+00
 -1000011  2    1    2    0    0 -1.4482287714e+02 -3.5274868304e+02 +6.4380897921e+02 2.3712541996e+03 2.2501002596e+03 1.7086e+03 0.0000e+00
       11  1    3    3    0    0 +1.3286326278e-03 +4.7216487508e-02 -9.6700111612e-02 1.0762125318e-01 5.1100000000e-04 0.0000e+00 1.0000e+00
  1000022  1    3    3    0    0 +1.4482154850e+02 +3.5270146655e+02 -2.0014400773e+01 2.2821639252e+03 2.2500000000e+03 0.0000e+00 0.0000e+00
      -11  1    4    4    0    0 +1.4703789042e-03 -5.8491600312e-02 +1.2447555420e-01 1.3754218942e-01 5.1100000000e-04 0.0000e+00 -1.0000e+00
  1000022  1    4    4    0    0 -1.4482434752e+02 -3.5269019144e+02 +6.4368450365e+02 2.3711166574e+03 2.2500000000e+03 0.0000e+00 0.0000e+00
<mgrwt>
<rscale>  0 0.46115402E+04</rscale>
<asrwt>0</asrwt>
<pdfrwt beam="1">  1        2 0.30998676E+00 0.46115402E+04</pdfrwt>
<pdfrwt beam="2">  1       -2 0.40594028E+00 0.46115402E+04</pdfrwt>
<totfact> 0.33412730E-02</totfact>
</mgrwt>
</event>
<event>
 8      1 +1.2359593e-08 5.64635000e+03 7.81860800e-03 7.73586600e-02
       -2 -1    0    0    0  501 -0.0000000000e+00 +0.0000000000e+00 +1.7242909604e+03 1.7242909604e+03 2.5500000000e-03 0.0000e+00 -1.0000e+00
        2 -1    0    0  501    0 +0.0000000000e+00 -0.0000000000e+00 -4.6223741731e+03 4.6223741731e+03 2.5500000000e-03 0.0000e+00 1.0000e+00
  1000011  2    1    2    0    0 +2.3051353931e+02 +1.5708585554e+03 -2.1479647497e+03 3.4924826850e+03 2.2500999191e+03 3.6478e+03 0.0000e+00
 -1000011  2    1    2    0    0 -2.3051353931e+02 -1.5708585554e+03 -7.5011846298e+02 2.8541824485e+03 2.2500992529e+03 1.8556e+02 0.0000e+00
       11  1    3    3    0    0 -7.0064947719e-02 -5.6290570228e-03 -3.3754843695e-02 7.7977135652e-02 5.1100000000e-04 0.0000e+00 1.0000e+00
  1000022  1    3    3    0    0 +2.3058360425e+02 +1.5708641845e+03 -2.1479309949e+03 3.4924047078e+03 2.2500000000e+03 0.0000e+00 0.0000e+00
      -11  1    4    4    0    0 +6.0122354559e-02 +1.9314341527e-02 -1.5651090118e-03 6.3170022346e-02 5.1100000000e-04 0.0000e+00 -1.0000e+00
  1000022  1    4    4    0    0 -2.3057366166e+02 -1.5708778697e+03 -7.5011689787e+02 2.8541192784e+03 2.2500000000e+03 0.0000e+00 0.0000e+00
<mgrwt>
<rscale>  0 0.56463503E+04</rscale>
<asrwt>0</asrwt>
<pdfrwt beam="1">  1        2 0.71113448E+00 0.56463503E+04</pdfrwt>
<pdfrwt beam="2">  1       -2 0.26527553E+00 0.56463503E+04</pdfrwt>
<totfact> 0.32776798E-03</totfact>
</mgrwt>
</event>
<event>
 8      1 +1.2359593e-08 4.88234600e+03 7.81860800e-03 7.84691700e-02
        2 -1    0    0  501    0 +0.0000000000e+00 +0.0000000000e+00 +2.7825871744e+03 2.7825871744e+03 2.5500000000e-03 0.0000e+00 1.0000e+00
       -2 -1    0    0    0  501 -0.0000000000e+00 -0.0000000000e+00 -2.1416491807e+03 2.1416491807e+03 2.5500000000e-03 0.0000e+00 -1.0000e+00
  1000011  2    1    2    0    0 -6.3993896631e+02 +4.8750281283e+02 -1.8296260911e+02 2.3965865401e+03 2.2501046319e+03 1.6873e+03 0.0000e+00
 -1000011  2    1    2    0    0 +6.3993896631e+02 -4.8750281283e+02 +8.2390060283e+02 2.5276498150e+03 2.2501156661e+03 2.7566e+03 0.0000e+00
       11  1    3    3    0    0 -3.9088122106e-03 -2.0458844514e-02 +8.6060231046e-02 8.8546414425e-02 5.1100000000e-04 0.0000e+00 1.0000e+00
  1000022  1    3    3    0    0 -6.3993505750e+02 +4.8752327167e+02 -1.8304866934e+02 2.3964979937e+03 2.2500000000e+03 0.0000e+00 0.0000e+00
      -11  1    4    4    0    0 -4.1279453037e-02 -6.1184419477e-03 -6.0912485593e-02 7.3837796591e-02 5.1100000000e-04 0.0000e+00 -1.0000e+00
  1000022  1    4    4    0    0 +6.3998024576e+02 -4.8749669438e+02 +8.2396151532e+02 2.5275759772e+03 2.2500000000e+03 0.0000e+00 0.0000e+00
<mgrwt>
<rscale>  0 0.48823460E+04</rscale>
<asrwt>0</asrwt>
<pdfrwt beam="1">  1        2 0.42809033E+00 0.48823460E+04</pdfrwt>
<pdfrwt beam="2">  1       -2 0.32948449E+00 0.48823460E+04</pdfrwt>
<totfact> 0.36402341E-02</totfact>
</mgrwt>
</event>
<event>
 8      1 +1.2359593e-08 5.47000800e+03 7.81860800e-03 7.75983000e-02
        1 -1    0    0  501    0 +0.0000000000e+00 +0.0000000000e+00 +3.1965584506e+03 3.1965584506e+03 5.0400000000e-03 0.0000e+00 1.0000e+00
       -1 -1    0    0    0  501 -0.0000000000e+00 -0.0000000000e+00 -2.3400937591e+03 2.3400937591e+03 5.0400000000e-03 0.0000e+00 -1.0000e+00
  1000011  2    1    2    0    0 +1.1416065366e+03 +3.9512698611e+02 -5.6241144199e+02 2.6150815559e+03 2.2501009076e+03 5.2309e+02 0.0000e+00
 -1000011  2    1    2    0    0 -1.1416065366e+03 -3.9512698611e+02 +1.4188761336e+03 2.9215706538e+03 2.2501055049e+03 3.0512e+02 0.0000e+00
       11  1    3    3    0    0 +4.5722650685e-03 +1.0210204195e-01 -5.5036123484e-02 1.1608173042e-01 5.1100000000e-04 0.0000e+00 1.0000e+00
  1000022  1    3    3    0    0 +1.1416019643e+03 +3.9502488407e+02 -5.6235640587e+02 2.6149654742e+03 2.2500000000e+03 0.0000e+00 0.0000e+00
      -11  1    4    4    0    0 +4.1340383831e-02 +5.1743763378e-02 +3.0530383874e-02 7.2930167906e-02 5.1100000000e-04 0.0000e+00 -1.0000e+00
  1000022  1    4    4    0    0 -1.1416478769e+03 -3.9517872988e+02 +1.4188456032e+03 2.9214977236e+03 2.2500000000e+03 0.0000e+00 0.0000e+00
<mgrwt>
<rscale>  0 0.54700079E+04</rscale>
<asrwt>0</asrwt>
<pdfrwt beam="1">  1        1 0.49177822E+00 0.54700079E+04</pdfrwt>
<pdfrwt beam="2">  1       -1 0.36001442E+00 0.54700079E+04</pdfrwt>
<totfact> 0.39646149E-03</totfact>
</mgrwt>
</event>
<event>
 8      1 +1.2359593e-08 5.19288600e+03 7.81860800e-03 7.79942300e-02
        2 -1    0    0  501    0 +0.0000000000e+00 +0.0000000000e+00 +2.8370521200e+03 2.8370521200e+03 2.5500000000e-03 0.0000e+00 1.0000e+00
       -2 -1    0    0    0  501 -0.0000000000e+00 -0.0000000000e+00 -2.3762397932e+03 2.3762397932e+03 2.5500000000e-03 0.0000e+00 -1.0000e+00
  1000011  2    1    2    0    0 -1.3164500197e+02 -2.1858286064e+02 -1.0448058943e+03 2.4939265796e+03 2.2500981210e+03 1.4110e+02 0.0000e+00
 -1000011  2    1    2    0    0 +1.3164500197e+02 +2.1858286064e+02 +1.5056182211e+03 2.7193653336e+03 2.2501006014e+03 2.9264e+03 0.0000e+00
       11  1    3    3    0    0 +6.3726705263e-02 -2.5555757888e-03 +3.2714351307e-02 7.1680634294e-02 5.1100000000e-04 0.0000e+00 1.0000e+00
  1000022  1    3    3    0    0 -1.3170872867e+02 -2.1858030507e+02 -1.0448386086e+03 2.4938548989e+03 2.2500000000e+03 0.0000e+00 0.0000e+00
      -11  1    4    4    0    0 -8.6374734862e-02 -6.4122159839e-04 +1.5954011206e-02 8.7839611093e-02 5.1100000000e-04 0.0000e+00 -1.0000e+00
  1000022  1    4    4    0    0 +1.3173137670e+02 +2.1858350186e+02 +1.5056022671e+03 2.7192774940e+03 2.2500000000e+03 0.0000e+00 0.0000e+00
<mgrwt>
<rscale>  0 0.51928860E+04</rscale>
<asrwt>0</asrwt>
<pdfrwt beam="1">  1        2 0.43646955E+00 0.51928860E+04</pdfrwt>
<pdfrwt beam="2">  1       -2 0.36557536E+00 0.51928860E+04</pdfrwt>
<totfact> 0.19507448E-02</totfact>
</mgrwt>
</event>
<event>
 8      1 +1.2359593e-08 5.13026900e+03 7.81860800e-03 7.80872000e-02
       -2 -1    0    0    0  501 -0.0000000000e+00 +0.0000000000e+00 +1.3018344000e+03 1.3018344000e+03 2.5500000000e-03 0.0000e+00 -1.0000e+00
        2 -1    0    0  501    0 +0.0000000000e+00 -0.0000000000e+00 -5.0543419436e+03 5.0543419436e+03 2.5500000000e-03 0.0000e+00 1.0000e+00
  1000011  2    1    2    0    0 +7.6579793352e+02 -5.8558654966e+02 -2.8259675965e+03 3.7387715862e+03 2.2501026721e+03 3.4443e+02 0.0000e+00
 -1000011  2    1    2    0    0 -7.6579793352e+02 +5.8558654966e+02 -9.2653994713e+02 2.6174047575e+03 2.2501051773e+03 2.9050e+03 0.0000e+00
       11  1    3    3    0    0 -2.1628635320e-02 -1.6346642184e-02 -2.3915055100e-01 2.4068289831e-01 5.1100000000e-04 0.0000e+00 1.0000e+00
  1000022  1    3    3    0    0 +7.6581956216e+02 -5.8557020302e+02 -2.8257284460e+03 3.7385309033e+03 2.2500000000e+03 0.0000e+00 0.0000e+00
      -11  1    4    4    0    0 -9.8554456039e-02 +6.1524233977e-02 +3.3880095518e-02 1.2102203812e-01 5.1100000000e-04 0.0000e+00 -1.0000e+00
  1000022  1    4    4    0    0 -7.6569937906e+02 +5.8552502543e+02 -9.2657382722e+02 2.6172837354e+03 2.2500000000e+03 0.0000e+00 0.0000e+00
<mgrwt>
<rscale>  0 0.51302695E+04</rscale>
<asrwt>0</asrwt>
<pdfrwt beam="1">  1        2 0.77759106E+00 0.51302695E+04</pdfrwt>
<pdfrwt beam="2">  1       -2 0.20028222E+00 0.51302695E+04</pdfrwt>
<totfact> 0.27365737E-03</totfact>
</mgrwt>
</event>
<event>
 8      1 +1.2359593e-08 5.42693700e+03 7.81860800e-03 7.76582300e-02
        2 -1    0    0  501    0 +0.0000000000e+00 +0.0000000000e+00 +4.0908630732e+03 4.0908630732e+03 2.5500000000e-03 0.0000e+00 -1.0000e+00
       -2 -1    0    0    0  501 -0.0000000000e+00 -0.0000000000e+00 -1.7998429182e+03 1.7998429182e+03 2.5500000000e-03 0.0000e+00 1.0000e+00
  1000011  2    1    2    0    0 +1.1199871991e+03 +4.2809819615e+02 +2.1534785607e+03 3.3373745463e+03 2.2501021218e+03 5.7693e+02 0.0000e+00
 -1000011  2    1    2    0    0 -1.1199871991e+03 -4.2809819615e+02 +1.3754159419e+02 2.5533314451e+03 2.2500987505e+03 1.0775e+03 0.0000e+00
       11  1    3    3    0    0 +1.4917912285e-01 +5.0943744249e-02 +1.9887804041e-01 2.5377630172e-01 5.1100000000e-04 0.0000e+00 1.0000e+00
  1000022  1    3    3    0    0 +1.1198380200e+03 +4.2804725241e+02 +2.1532796827e+03 3.3371207700e+03 2.2500000000e+03 0.0000e+00 0.0000e+00
      -11  1    4    4    0    0 -1.2600495662e-01 +2.0799508663e-03 +7.3525283665e-02 1.4590340430e-01 5.1100000000e-04 0.0000e+00 -1.0000e+00
  1000022  1    4    4    0    0 -1.1198611942e+03 -4.2810027610e+02 +1.3746806890e+02 2.5531855417e+03 2.2500000000e+03 0.0000e+00 0.0000e+00
<mgrwt>
<rscale>  0 0.54269369E+04</rscale>
<asrwt>0</asrwt>
<pdfrwt beam="1">  1        2 0.62936355E+00 0.54269369E+04</pdfrwt>
<pdfrwt beam="2">  1       -2 0.27689891E+00 0.54269369E+04</pdfrwt>
<totfact> 0.88657597E-03</totfact>
</mgrwt>
</event>
<event>
 8      1 +1.2359593e-08 4.85852900e+03 7.81860800e-03 7.85070900e-02
        2 -1    0    0  501    0 +0.0000000000e+00 +0.0000000000e+00 +1.9969761331e+03 1.9969761331e+03 2.5500000000e-03 0.0000e+00 1.0000e+00
       -2 -1    0    0    0  501 -0.0000000000e+00 -0.0000000000e+00 -2.9551315139e+03 2.9551315139e+03 2.5500000000e-03 0.0000e+00 -1.0000e+00
  1000011  2    1    2    0    0 +8.3654189504e+02 -3.6986998903e+02 -4.3618293249e+02 2.4677528574e+03 2.2500983232e+03 3.4619e+02 0.0000e+00
 -1000011  2    1    2    0    0 -8.3654189504e+02 +3.6986998903e+02 -5.2197244835e+02 2.4843547896e+03 2.2501016272e+03 1.6806e+03 0.0000e+00
       11  1    3    3    0    0 +1.2284422174e-01 -5.4584954525e-02 +2.0098935340e-02 1.3592074186e-01 5.1100000000e-04 0.0000e+00 1.0000e+00
  1000022  1    3    3    0    0 +8.3641905082e+02 -3.6981540407e+02 -4.3620303143e+02 2.4676169367e+03 2.2500000000e+03 0.0000e+00 0.0000e+00
      -11  1    4    4    0    0 +2.6806253735e-02 -5.1094787246e-02 -6.8926641333e-02 8.9891018274e-02 5.1100000000e-04 0.0000e+00 -1.0000e+00
  1000022  1    4    4    0    0 -8.3656870130e+02 +3.6992108381e+02 -5.2190352170e+02 2.4842648986e+03 2.2500000000e+03 0.0000e+00 0.0000e+00
<mgrwt>
<rscale>  0 0.48585294E+04</rscale>
<asrwt>0</asrwt>
<pdfrwt beam="1">  1        2 0.30722710E+00 0.48585294E+04</pdfrwt>
<pdfrwt beam="2">  1       -2 0.45463562E+00 0.48585294E+04</pdfrwt>
<totfact> 0.16014136E-02</totfact>
</mgrwt>
</event>
<event>
 8      1 +1.2359593e-08 5.32158800e+03 7.81860800e-03 7.78072700e-02
        2 -1    0    0  501    0 +0.0000000000e+00 +0.0000000000e+00 +4.3647908024e+03 4.3647908024e+03 2.5500000000e-03 0.0000e+00 1.0000e+00
       -2 -1    0    0    0  501 -0.0000000000e+00 -0.0000000000e+00 -1.6220306750e+03 1.6220306750e+03 2.5500000000e-03 0.0000e+00 -1.0000e+00
  1000011  2    1    2    0    0 -1.4838491870e+02 +1.3984893876e+03 +1.5937729514e+03 3.0952983482e+03 2.2501042181e+03 9.6492e+02 0.0000e+00
 -1000011  2    1    2    0    0 +1.4838491870e+02 -1.3984893876e+03 +1.1489871760e+03 2.8915231292e+03 2.2500986256e+03 8.4644e+02 0.0000e+00
       11  1    3    3    0    0 -4.7370442938e-02 -1.6970942092e-02 +1.2494164625e-01 1.3469464469e-01 5.1100000000e-04 0.0000e+00 1.0000e+00
  1000022  1    3    3    0    0 -1.4833754825e+02 +1.3985063586e+03 +1.5936480097e+03 3.0951636535e+03 2.2500000000e+03 0.0000e+00 0.0000e+00
      -11  1    4    4    0    0 +2.1479458426e-02 +7.0113340074e-03 +1.2005302950e-01 1.2216184480e-01 5.1100000000e-04 0.0000e+00 -1.0000e+00
  1000022  1    4    4    0    0 +1.4836343924e+02 -1.3984963989e+03 +1.1488671230e+03 2.8914009674e+03 2.2500000000e+03 0.0000e+00 0.0000e+00
<mgrwt>
<rscale>  0 0.53215879E+04</rscale>
<asrwt>0</asrwt>
<pdfrwt beam="1">  1        2 0.67150628E+00 0.53215879E+04</pdfrwt>
<pdfrwt beam="2">  1       -2 0.24954318E+00 0.53215879E+04</pdfrwt>
<totfact> 0.75328295E-03</totfact>
</mgrwt>
</event>
<event>
 8      1 +1.2359593e-08 5.04558200e+03 7.81860800e-03 7.82151400e-02
        2 -1    0    0  501    0 +0.0000000000e+00 +0.0000000000e+00 +1.7828400101e+03 1.7828400101e+03 2.5500000000e-03 0.0000e+00 1.0000e+00
       -2 -1    0    0    0  501 -0.0000000000e+00 -0.0000000000e+00 -3.5698521624e+03 3.5698521624e+03 2.5500000000e-03 0.0000e+00 -1.0000e+00
  1000011  2    1    2    0    0 +1.0066667275e+03 +1.4306169846e+02 -3.4464428918e+02 2.4931083199e+03 2.2501032996e+03 3.7407e+02 0.0000e+00
 -1000011  2    1    2    0    0 -1.0066667275e+03 -1.4306169846e+02 -1.4423678630e+03 2.8595838526e+03 2.2501000440e+03 9.2096e+02 0.0000e+00
       11  1    3    3    0    0 +1.5764305772e-01 +2.5730044693e-02 -1.5015526302e-02 1.6043408426e-01 5.1100000000e-04 0.0000e+00 1.0000e+00
  1000022  1    3    3    0    0 +1.0065090844e+03 +1.4303596842e+02 -3.4462927365e+02 2.4929478858e+03 2.2500000000e+03 0.0000e+00 0.0000e+00
      -11  1    4    4    0    0 -8.2864855911e-02 +1.0525614927e-02 -1.7929741671e-01 1.9780090372e-01 5.1100000000e-04 0.0000e+00 -1.0000e+00
  1000022  1    4    4    0    0 -1.0065838626e+03 -1.4307222408e+02 -1.4421885656e+03 2.8593860517e+03 2.2500000000e+03 0.0000e+00 0.0000e+00
<mgrwt>
<rscale>  0 0.50455823E+04</rscale>
<asrwt>0</asrwt>
<pdfrwt beam="1">  1        2 0.27428308E+00 0.50455823E+04</pdfrwt>
<pdfrwt beam="2">  1       -2 0.54920802E+00 0.50455823E+04</pdfrwt>
<totfact> 0.55714932E-03</totfact>
</mgrwt>
</event>
<event>
 8      1 +1.2359593e-08 4.84501800e+03 7.81860800e-03 7.85287000e-02
       -2 -1    0    0    0  501 -0.0000000000e+00 +0.0000000000e+00 +1.4204992630e+03 1.4204992630e+03 2.5500000000e-03 0.0000e+00 -1.0000e+00
        2 -1    0    0  501    0 +0.0000000000e+00 -0.0000000000e+00 -4.1313282352e+03 4.1313282352e+03 2.5500000000e-03 0.0000e+00 1.0000e+00
  1000011  2    1    2    0    0 -8.9588354804e+02 -4.0085128195e+00 -1.4179105658e+03 2.8064288636e+03 2.2500998187e+03 1.0199e+03 0.0000e+00
 -1000011  2    1    2    0    0 +8.9588354804e+02 +4.0085128195e+00 -1.2929184065e+03 2.7453986346e+03 2.2501004994e+03 5.3230e+02 0.0000e+00
       11  1    3    3    0    0 -1.0612326996e-01 +6.6722069997e-02 -2.9735575586e-02 1.2883496638e-01 5.1100000000e-04 0.0000e+00 1.0000e+00
  1000022  1    3    3    0    0 -8.9577742477e+02 -4.0752348895e+00 -1.4178808302e+03 2.8063000287e+03 2.2500000000e+03 0.0000e+00 0.0000e+00
      -11  1    4    4    0    0 +9.6205349724e-02 +8.6045782463e-02 -7.1861234498e-02 1.4772827768e-01 5.1100000000e-04 0.0000e+00 -1.0000e+00
  1000022  1    4    4    0    0 +8.9578734269e+02 +3.9224670370e+00 -1.2928465452e+03 2.7452509063e+03 2.2500000000e+03 0.0000e+00 0.0000e+00
<mgrwt>
<rscale>  0 0.48450175E+04</rscale>
<asrwt>0</asrwt>
<pdfrwt beam="1">  1        2 0.63558895E+00 0.48450175E+04</pdfrwt>
<pdfrwt beam="2">  1       -2 0.21853835E+00 0.48450175E+04</pdfrwt>
<totfact> 0.19708255E-02</totfact>
</mgrwt>
</event>
<event>
 8      1 +1.2359593e-08 4.94024300e+03 7.81860800e-03 7.83779200e-02
       -2 -1    0    0    0  501 -0.0000000000e+00 +0.0000000000e+00 +2.0799525286e+03 2.0799525286e+03 2.5500000000e-03 0.0000e+00 -1.0000e+00
        2 -1    0    0  501    0 +0.0000000000e+00 -0.0000000000e+00 -2.9334803411e+03 2.9334803411e+03 2.5500000000e-03 0.0000e+00 1.0000e+00
  1000011  2    1    2    0    0 +9.2182166862e+02 -4.3344078318e+02 -4.5745154583e+02 2.5119408857e+03 2.2501019966e+03 1.3372e+03 0.0000e+00
 -1000011  2    1    2    0    0 -9.2182166862e+02 +4.3344078318e+02 -3.9607626672e+02 2.5014919841e+03 2.2501021390e+03 1.6347e+02 0.0000e+00
       11  1    3    3    0    0 +1.1431902480e-01 -4.2563074661e-02 -1.0248433178e-01 1.5932279683e-01 5.1100000000e-04 0.0000e+00 1.0000e+00
  1000022  1    3    3    0    0 +9.2170734960e+02 -4.3339822011e+02 -4.5734906150e+02 2.5117815629e+03 2.2500000000e+03 0.0000e+00 0.0000e+00
      -11  1    4    4    0    0 -1.3316565049e-01 -1.8355893770e-02 -6.0225462413e-02 1.4730036093e-01 5.1100000000e-04 0.0000e+00 -1.0000e+00
  1000022  1    4    4    0    0 -9.2168850297e+02 +4.3345913908e+02 -3.9601604126e+02 2.5013446837e+03 2.2500000000e+03 0.0000e+00 0.0000e+00
<mgrwt>
<rscale>  0 0.49402428E+04</rscale>
<asrwt>0</asrwt>
<pdfrwt beam="1">  1        2 0.45130467E+00 0.49402428E+04</pdfrwt>
<pdfrwt beam="2">  1       -2 0.31999270E+00 0.49402428E+04</pdfrwt>
<totfact> 0.33542680E-02</totfact>
</mgrwt>
</event>
<event>
 8      1 +1.2359593e-08 4.60986500e+03 7.81860800e-03 7.89168000e-02
       -2 -1    0    0    0  501 -0.0000000000e+00 +0.0000000000e+00 +2.1764875601e+03 2.1764875601e+03 2.5500000000e-03 0.0000e+00 -1.0000e+00
        2 -1    0    0  501    0 +0.0000000000e+00 -0.0000000000e+00 -2.4409574877e+03 2.4409574877e+03 2.5500000000e-03 0.0000e+00 1.0000e+00
  1000011  2    1    2    0    0 +4.9657618969e+02 +4.7291635111e+01 -1.0232273439e+02 2.3070123382e+03 2.2501136807e+03 5.1880e+02 0.0000e+00
 -1000011  2    1    2    0    0 -4.9657618969e+02 -4.7291635111e+01 -1.6214719321e+02 2.3104327095e+03 2.2501073712e+03 1.2332e+03 0.0000e+00
       11  1    3    3    0    0 -4.7420847951e-02 +3.1437225974e-02 -8.8530989708e-02 1.0523798280e-01 5.1100000000e-04 0.0000e+00 1.0000e+00
  1000022  1    3    3    0    0 +4.9662361054e+02 +4.7260197885e+01 -1.0223420340e+02 2.3069071003e+03 2.2500000000e+03 0.0000e+00 0.0000e+00
      -11  1    4    4    0    0 -4.8436481207e-02 -9.4965155819e-02 +4.0588684817e-02 1.1407092441e-01 5.1100000000e-04 0.0000e+00 -1.0000e+00
  1000022  1    4    4    0    0 -4.9652775321e+02 -4.7196669956e+01 -1.6218778189e+02 2.3103186386e+03 2.2500000000e+03 0.0000e+00 0.0000e+00
<mgrwt>
<rscale>  0 0.46098649E+04</rscale>
<asrwt>0</asrwt>
<pdfrwt beam="1">  1        2 0.37553192E+00 0.46098649E+04</pdfrwt>
<pdfrwt beam="2">  1       -2 0.33484424E+00 0.46098649E+04</pdfrwt>
<totfact> 0.54769157E-02</totfact>
</mgrwt>
</event>
<event>
 8      1 +1.2359593e-08 6.28145500e+03 7.81860800e-03 7.65645200e-02
        2 -1    0    0  501    0 +0.0000000000e+00 +0.0000000000e+00 +3.1849441381e+03 3.1849441381e+03 2.5500000000e-03 0.0000e+00 1.0000e+00
       -2 -1    0    0    0  501 -0.0000000000e+00 -0.0000000000e+00 -3.0971247930e+03 3.0971247930e+03 2.5500000000e-03 0.0000e+00 -1.0000e+00
  1000011  2    1    2    0    0 -1.3565576693e+03 +1.2158301160e+03 +1.2617061719e+03 3.1580551475e+03 2.2500929469e+03 1.5757e+02 0.0000e+00
 -1000011  2    1    2    0    0 +1.3565576693e+03 -1.2158301160e+03 -1.1738868269e+03 3.1240137836e+03 2.2501022770e+03 1.9914e+02 0.0000e+00
       11  1    3    3    0    0 -1.3332159886e-01 +2.6565777486e-02 +1.2125439249e-01 1.8216277769e-01 5.1100000000e-04 0.0000e+00 1.0000e+00
  1000022  1    3    3    0    0 -1.3564243477e+03 +1.2158035502e+03 +1.2615849175e+03 3.1578729847e+03 2.2500000000e+03 0.0000e+00 0.0000e+00
      -11  1    4    4    0    0 +1.5820891309e-01 -1.3635180802e-02 -5.0307210205e-02 1.6657447122e-01 5.1100000000e-04 0.0000e+00 -1.0000e+00
  1000022  1    4    4    0    0 +1.3563994604e+03 -1.2158164808e+03 -1.1738365197e+03 3.1238472091e+03 2.2500000000e+03 0.0000e+00 0.0000e+00
<mgrwt>
<rscale>  0 0.62814551E+04</rscale>
<asrwt>0</asrwt>
<pdfrwt beam="1">  1        2 0.48999140E+00 0.62814551E+04</pdfrwt>
<pdfrwt beam="2">  1       -2 0.47648074E+00 0.62814551E+04</pdfrwt>
<totfact> 0.20489806E-03</totfact>
</mgrwt>
</event>
<event>
 8      1 +1.2359593e-08 5.40785300e+03 7.81860800e-03 7.76849700e-02
        2 -1    0    0  501    0 +0.0000000000e+00 +0.0000000000e+00 +3.4320896695e+03 3.4320896695e+03 2.5500000000e-03 0.0000e+00 1.0000e+00
       -2 -1    0    0    0  501 -0.0000000000e+00 -0.0000000000e+00 -2.1302524677e+03 2.1302524678e+03 2.5500000000e-03 0.0000e+00 -1.0000e+00
  1000011  2    1    2    0    0 +1.3373144997e+03 +5.0778374477e+02 +1.1132275947e+03 2.8893710707e+03 2.2500966877e+03 8.1179e+02 0.0000e+00
 -1000011  2    1    2    0    0 -1.3373144997e+03 -5.0778374477e+02 +1.8860960709e+02 2.6729710666e+03 2.2500991836e+03 2.2092e+02 0.0000e+00
       11  1    3    3    0    0 +5.2617672475e-02 +4.8665845825e-02 +1.4951249212e-01 1.6580479467e-01 5.1100000000e-04 0.0000e+00 1.0000e+00
  1000022  1    3    3    0    0 +1.3372618821e+03 +5.0773507892e+02 +1.1130780822e+03 2.8892052659e+03 2.2500000000e+03 0.0000e+00 0.0000e+00
      -11  1    4    4    0    0 +3.8758298590e-02 -6.5166016069e-02 -5.9730290111e-03 7.6057564606e-02 5.1100000000e-04 0.0000e+00 -1.0000e+00
  1000022  1    4    4    0    0 -1.3373532580e+03 -5.0771857875e+02 +1.8861558011e+02 2.6728950090e+03 2.2500000000e+03 0.0000e+00 0.0000e+00
<mgrwt>
<rscale>  0 0.54078526E+04</rscale>
<asrwt>0</asrwt>
<pdfrwt beam="1">  1        2 0.52801379E+00 0.54078526E+04</pdfrwt>
<pdfrwt beam="2">  1       -2 0.32773115E+00 0.54078526E+04</pdfrwt>
<totfact> 0.13675166E-02</totfact>
</mgrwt>
</event>
<event>
 8      1 +1.2359593e-08 5.53656400e+03 7.81860800e-03 7.75067800e-02
       -2 -1    0    0    0  501 -0.0000000000e+00 +0.0000000000e+00 +3.8378864064e+03 3.8378864064e+03 2.5500000000e-03 0.0000e+00 -1.0000e+00
        2 -1    0    0  501    0 +0.0000000000e+00 -0.0000000000e+00 -1.9967723510e+03 1.9967723510e+03 2.5500000000e-03 0.0000e+00 1.0000e+00
  1000011  2    1    2    0    0 +1.4032865670e+03 -3.9765064133e+02 +1.9572404488e+02 2.6886039568e+03 2.2500986896e+03 2.7732e+02 0.0000e+00
 -1000011  2    1    2    0    0 -1.4032865670e+03 +3.9765064133e+02 +1.6453900105e+03 3.1460548007e+03 2.2501140640e+03 1.4004e+03 0.0000e+00
       11  1    3    3    0    0 +8.2257691152e-02 -7.6195040964e-02 -6.9193659197e-02 1.3175748715e-01 5.1100000000e-04 0.0000e+00 1.0000e+00
  1000022  1    3    3    0    0 +1.4032043093e+03 -3.9757444629e+02 +1.9579323854e+02 2.6884721993e+03 2.2500000000e+03 0.0000e+00 0.0000e+00
      -11  1    4    4    0    0 -9.4106056950e-02 +3.6318051094e-02 +2.2305283953e-01 2.4480151299e-01 5.1100000000e-04 0.0000e+00 -1.0000e+00
  1000022  1    4    4    0    0 -1.4031924609e+03 +3.9761432328e+02 +1.6451669577e+03 3.1458099992e+03 2.2500000000e+03 0.0000e+00 0.0000e+00
<mgrwt>
<rscale>  0 0.55365641E+04</rscale>
<asrwt>0</asrwt>
<pdfrwt beam="1">  1        2 0.30719575E+00 0.55365641E+04</pdfrwt>
<pdfrwt beam="2">  1       -2 0.59044406E+00 0.55365641E+04</pdfrwt>
<totfact> 0.26398130E-03</totfact>
</mgrwt>
</event>
<event>
 8      1 +1.2359593e-08 5.03798900e+03 7.81860800e-03 7.82267400e-02
        2 -1    0    0  501    0 +0.0000000000e+00 +0.0000000000e+00 +4.2531566916e+03 4.2531566916e+03 2.5500000000e-03 0.0000e+00 1.0000e+00
       -2 -1    0    0    0  501 -0.0000000000e+00 -0.0000000000e+00 -1.4919117522e+03 1.4919117522e+03 2.5500000000e-03 0.0000e+00 -1.0000e+00
  1000011  2    1    2    0    0 +9.7795243035e+02 +3.8301866993e+02 +8.9775526199e+02 2.6404527445e+03 2.2500959820e+03 1.6819e+02 0.0000e+00
 -1000011  2    1    2    0    0 -9.7795243035e+02 -3.8301866993e+02 +1.8634896773e+03 3.1046156993e+03 2.2501001322e+03 3.7601e+02 0.0000e+00
       11  1    3    3    0    0 +1.2089190071e-01 +7.9012226815e-02 +8.0865994414e-02 1.6552145922e-01 5.1100000000e-04 0.0000e+00 1.0000e+00
  1000022  1    3    3    0    0 +9.7783153844e+02 +3.8293965771e+02 +8.9767439599e+02 2.6402872231e+03 2.2500000000e+03 0.0000e+00 0.0000e+00
      -11  1    4    4    0    0 +2.9577099751e-02 -7.7733355931e-02 +2.1952630853e-02 8.6020102878e-02 5.1100000000e-04 0.0000e+00 -1.0000e+00
  1000022  1    4    4    0    0 -9.7798200745e+02 -3.8294093658e+02 +1.8634677247e+03 3.1045296792e+03 2.2500000000e+03 0.0000e+00 0.0000e+00
<mgrwt>
<rscale>  0 0.50379895E+04</rscale>
<asrwt>0</asrwt>
<pdfrwt beam="1">  1        2 0.65433179E+00 0.50379895E+04</pdfrwt>
<pdfrwt beam="2">  1       -2 0.22952489E+00 0.50379895E+04</pdfrwt>
<totfact> 0.12961024E-02</totfact>
</mgrwt>
</event>
<event>
 8      1 +1.2359593e-08 4.61426200e+03 7.81860800e-03 7.89093300e-02
       -2 -1    0    0    0  501 -0.0000000000e+00 +0.0000000000e+00 +1.2163876663e+03 1.2163876663e+03 2.5500000000e-03 0.0000e+00 -1.0000e+00
        2 -1    0    0  501    0 +0.0000000000e+00 -0.0000000000e+00 -4.3759522539e+03 4.3759522539e+03 2.5500000000e-03 0.0000e+00 1.0000e+00
  1000011  2    1    2    0    0 +3.2349639977e+02 +2.7731654235e+02 -1.9190335094e+03 2.9878396671e+03 2.2500981935e+03 1.0422e+03 0.0000e+00
 -1000011  2    1    2    0    0 -3.2349639977e+02 -2.7731654235e+02 -1.2405310782e+03 2.6045002531e+03 2.2500999594e+03 4.4452e+02 0.0000e+00
       11  1    3    3    0    0 -3.6975377271e-02 +5.5047735708e-02 -1.7605086726e-01 1.8812655372e-01 5.1100000000e-04 0.0000e+00 1.0000e+00
  1000022  1    3    3    0    0 +3.2353337515e+02 +2.7726149462e+02 -1.9188574586e+03 2.9876515405e+03 2.2500000000e+03 0.0000e+00 0.0000e+00
      -11  1    4    4    0    0 -1.0042385608e-01 -6.5155614273e-02 -7.8549835991e-02 1.4318010503e-01 5.1100000000e-04 0.0000e+00 -1.0000e+00
  1000022  1    4    4    0    0 -3.2339597592e+02 -2.7725138674e+02 -1.2404525284e+03 2.6043570730e+03 2.2500000000e+03 0.0000e+00 0.0000e+00
<mgrwt>
<rscale>  0 0.46142624E+04</rscale>
<asrwt>0</asrwt>
<pdfrwt beam="1">  1        2 0.67322341E+00 0.46142624E+04</pdfrwt>
<pdfrwt beam="2">  1       -2 0.18713657E+00 0.46142624E+04</pdfrwt>
<totfact> 0.19514621E-02</totfact>
</mgrwt>
</event>
<event>
 8      1 +1.2359593e-08 4.62190100e+03 7.81860800e-03 7.88963600e-02
       -2 -1    0    0    0  501 -0.0000000000e+00 +0.0000000000e+00 +1.4740836865e+03 1.4740836865e+03 2.5500000000e-03 0.0000e+00 -1.0000e+00
        2 -1    0    0  501    0 +0.0000000000e+00 -0.0000000000e+00 -3.6229233299e+03 3.6229233299e+03 2.5500000000e-03 0.0000e+00 1.0000e+00
  1000011  2    1    2    0    0 +1.5510418459e+01 -2.5629659818e+02 -1.5817191188e+03 2.7623751322e+03 2.2501005490e+03 1.5980e+02 0.0000e+00
 -1000011  2    1    2    0    0 -1.5510418459e+01 +2.5629659818e+02 -5.6712052461e+02 2.3346318842e+03 2.2501004035e+03 1.7662e+01 0.0000e+00
       11  1    3    3    0    0 +4.3390471601e-02 -1.7304218895e-02 -1.8215619852e-01 1.8805135053e-01 5.1100000000e-04 0.0000e+00 1.0000e+00
  1000022  1    3    3    0    0 +1.5467027987e+01 -2.5627929396e+02 -1.5815369626e+03 2.7621870808e+03 2.2500000000e+03 0.0000e+00 0.0000e+00
      -11  1    4    4    0    0 +7.4933619651e-03 -7.1014601910e-02 +3.6292945307e-02 8.0104074557e-02 5.1100000000e-04 0.0000e+00 -1.0000e+00
  1000022  1    4    4    0    0 -1.5517911821e+01 +2.5636761278e+02 -5.6715681755e+02 2.3345517801e+03 2.2500000000e+03 0.0000e+00 0.0000e+00
<mgrwt>
<rscale>  0 0.46219010E+04</rscale>
<asrwt>0</asrwt>
<pdfrwt beam="1">  1        2 0.55737282E+00 0.46219010E+04</pdfrwt>
<pdfrwt beam="2">  1       -2 0.22678211E+00 0.46219010E+04</pdfrwt>
<totfact> 0.44552710E-02</totfact>
</mgrwt>
</event>
<event>
 8      1 +1.2359593e-08 5.11136400e+03 7.81860800e-03 7.81155400e-02
        2 -1    0    0  501    0 +0.0000000000e+00 +0.0000000000e+00 +3.3901625675e+03 3.3901625675e+03 2.5500000000e-03 0.0000e+00 1.0000e+00
       -2 -1    0    0    0  501 -0.0000000000e+00 -0.0000000000e+00 -1.9266067627e+03 1.9266067627e+03 2.5500000000e-03 0.0000e+00 -1.0000e+00
  1000011  2    1    2    0    0 +5.7756430755e+02 -9.6909174237e+02 +2.7146328460e+02 2.5316722320e+03 2.2501005847e+03 1.6905e+01 0.0000e+00
 -1000011  2    1    2    0    0 -5.7756430755e+02 +9.6909174237e+02 +1.1920925201e+03 2.7850970981e+03 2.2501026499e+03 7.6887e+01 0.0000e+00
       11  1    3    3    0    0 -2.9071609733e-02 -1.3010987440e-01 +1.2215035765e-02 1.3387757751e-01 5.1100000000e-04 0.0000e+00 1.0000e+00
  1000022  1    3    3    0    0 +5.7759337916e+02 -9.6896163250e+02 +2.7145106956e+02 2.5315383545e+03 2.2500000000e+03 0.0000e+00 0.0000e+00
      -11  1    4    4    0    0 -5.6149480337e-02 +7.7784628066e-02 +1.6819518467e-01 1.9363133312e-01 5.1100000000e-04 0.0000e+00 -1.0000e+00
  1000022  1    4    4    0    0 -5.7750815807e+02 +9.6901395775e+02 +1.1919243250e+03 2.7849034668e+03 2.2500000000e+03 0.0000e+00 0.0000e+00
<mgrwt>
<rscale>  0 0.51113639E+04</rscale>
<asrwt>0</asrwt>
<pdfrwt beam="1">  1        2 0.52156346E+00 0.51113639E+04</pdfrwt>
<pdfrwt beam="2">  1       -2 0.29640104E+00 0.51113639E+04</pdfrwt>
<totfact> 0.23326625E-02</totfact>
</mgrwt>
</event>
<event>
 8      1 +1.2359593e-08 4.90274000e+03 7.81860800e-03 7.84368800e-02
       -2 -1    0    0    0  501 -0.0000000000e+00 +0.0000000000e+00 +2.5234721336e+03 2.5234721336e+03 2.5500000000e-03 0.0000e+00 -1.0000e+00
        2 -1    0    0  501    0 +0.0000000000e+00 -0.0000000000e+00 -2.3813278926e+03 2.3813278926e+03 2.5500000000e-03 0.0000e+00 1.0000e+00
  1000011  2    1    2    0    0 +4.4888906077e+02 -3.5101120492e+02 +8.5979191425e+02 2.4752573173e+03 2.2500991970e+03 1.4508e+03 0.0000e+00
 -1000011  2    1    2    0    0 -4.4888906077e+02 +3.5101120492e+02 -7.1764767329e+02 2.4295427090e+03 2.2500998504e+03 1.0065e+03 0.0000e+00
       11  1    3    3    0    0 -3.7288073446e-02 +6.2883335989e-02 -3.7100262519e-03 7.3203409131e-02 5.1100000000e-04 0.0000e+00 1.0000e+00
  1000022  1    3    3    0    0 +4.4892634884e+02 -3.5107408826e+02 +8.5979562428e+02 2.4751841139e+03 2.2500000000e+03 0.0000e+00 0.0000e+00
      -11  1    4    4    0    0 -8.8838386142e-02 +8.1444457693e-02 +4.4297369346e-04 1.2052350704e-01 5.1100000000e-04 0.0000e+00 -1.0000e+00
  1000022  1    4    4    0    0 -4.4880022238e+02 +3.5092976046e+02 -7.1764811626e+02 2.4294221855e+03 2.2500000000e+03 0.0000e+00 0.0000e+00
<mgrwt>
<rscale>  0 0.49027399E+04</rscale>
<asrwt>0</asrwt>
<pdfrwt beam="1">  1        2 0.36635814E+00 0.49027399E+04</pdfrwt>
<pdfrwt beam="2">  1       -2 0.38822648E+00 0.49027399E+04</pdfrwt>
<totfact> 0.26487471E-02</totfact>
</mgrwt>
</event>
<event>
 8      1 +1.2359593e-08 5.40771900e+03 7.81860800e-03 7.76851600e-02
        2 -1    0    0  501    0 +0.0000000000e+00 +0.0000000000e+00 +3.2353954630e+03 3.2353954630e+03 2.5500000000e-03 0.0000e+00 1.0000e+00
       -2 -1    0    0    0  501 -0.0000000000e+00 -0.0000000000e+00 -2.2596479920e+03 2.2596479920e+03 2.5500000000e-03 0.0000e+00 -1.0000e+00
  1000011  2    1    2    0    0 +1.3485526667e+03 +3.9993981311e+02 -3.9506456021e+01 2.6538759027e+03 2.2501000862e+03 2.1180e+03 0.0000e+00
 -1000011  2    1    2    0    0 -1.3485526667e+03 -3.9993981311e+02 +1.0152539270e+03 2.8411675523e+03 2.2500991922e+03 2.1632e+02 0.0000e+00
       11  1    3    3    0    0 -7.7325222121e-03 +9.4359874844e-02 -1.0967951328e-02 9.5310726680e-02 5.1100000000e-04 0.0000e+00 1.0000e+00
  1000022  1    3    3    0    0 +1.3485603993e+03 +3.9984545323e+02 -3.9495488070e+01 2.6537805920e+03 2.2500000000e+03 0.0000e+00 0.0000e+00
      -11  1    4    4    0    0 -1.7228731878e-01 -1.3865047602e-02 +4.7471084975e-02 1.7924543068e-01 5.1100000000e-04 0.0000e+00 -1.0000e+00
  1000022  1    4    4    0    0 -1.3483803794e+03 -3.9992594806e+02 +1.0152064559e+03 2.8409883068e+03 2.2500000000e+03 0.0000e+00 0.0000e+00
<mgrwt>
<rscale>  0 0.54077185E+04</rscale>
<asrwt>0</asrwt>
<pdfrwt beam="1">  1        2 0.49775314E+00 0.54077185E+04</pdfrwt>
<pdfrwt beam="2">  1       -2 0.34763816E+00 0.54077185E+04</pdfrwt>
<totfact> 0.13938748E-02</totfact>
</mgrwt>
</event>
<event>
 8      1 +1.2359593e-08 5.39420500e+03 7.81860800e-03 7.77041700e-02
        2 -1    0    0  501    0 +0.0000000000e+00 +0.0000000000e+00 +3.2992672039e+03 3.2992672039e+03 2.5500000000e-03 0.0000e+00 -1.0000e+00
       -2 -1    0    0    0  501 -0.0000000000e+00 -0.0000000000e+00 -2.2048415797e+03 2.2048415797e+03 2.5500000000e-03 0.0000e+00 1.0000e+00
  1000011  2    1    2    0    0 +3.3364808139e+02 -9.0027030298e+02 +1.7059557080e+03 2.9824579965e+03 2.2501029228e+03 3.8071e+02 0.0000e+00
 -1000011  2    1    2    0    0 -3.3364808139e+02 +9.0027030298e+02 -6.1153008377e+02 2.5216507871e+03 2.2500991063e+03 4.9207e+03 0.0000e+00
       11  1    3    3    0    0 +6.9707396212e-02 +4.7906246795e-02 +3.8039096882e-02 9.2743533004e-02 5.1100000000e-04 0.0000e+00 1.0000e+00
  1000022  1    3    3    0    0 +3.3357837399e+02 -9.0031820923e+02 +1.7059176689e+03 2.9823652530e+03 2.2500000000e+03 0.0000e+00 0.0000e+00
      -11  1    4    4    0    0 -9.3100865130e-02 +9.6875551688e-02 -7.3543291384e-02 1.5317153884e-01 5.1100000000e-04 0.0000e+00 -1.0000e+00
  1000022  1    4    4    0    0 -3.3355498052e+02 +9.0017342743e+02 -6.1145654048e+02 2.5214976156e+03 2.2500000000e+03 0.0000e+00 0.0000e+00
<mgrwt>
<rscale>  0 0.53942049E+04</rscale>
<asrwt>0</asrwt>
<pdfrwt beam="1">  1        2 0.50757957E+00 0.53942049E+04</pdfrwt>
<pdfrwt beam="2">  1       -2 0.33920640E+00 0.53942049E+04</pdfrwt>
<totfact> 0.14294772E-02</totfact>
</mgrwt>
</event>
<event>
 8      1 +1.2359593e-08 5.41011900e+03 7.81860800e-03 7.76817900e-02
        1 -1    0    0  501    0 +0.0000000000e+00 +0.0000000000e+00 +2.2574912660e+03 2.2574912660e+03 5.0400000000e-03 0.0000e+00 1.0000e+00
       -1 -1    0    0    0  501 -0.0000000000e+00 -0.0000000000e+00 -3.2413618444e+03 3.2413618444e+03 5.0400000000e-03 0.0000e+00 -1.0000e+00
  1000011  2    1    2    0    0 -6.6233434862e+01 -1.0149015775e+03 +6.3070720757e+02 2.5485604854e+03 2.2501015279e+03 1.7807e+02 0.0000e+00
 -1000011  2    1    2    0    0 +6.6233434862e+01 +1.0149015775e+03 -1.6145777859e+03 2.9502926251e+03 2.2501006793e+03 7.7405e+02 0.0000e+00
       11  1    3    3    0    0 -4.1787105299e-02 -4.0313455014e-02 +1.2482141717e-01 1.3766620371e-01 5.1100000000e-04 0.0000e+00 1.0000e+00
  1000022  1    3    3    0    0 -6.6191647757e+01 -1.0148612640e+03 +6.3058238615e+02 2.5484228191e+03 2.2500000000e+03 0.0000e+00 0.0000e+00
      -11  1    4    4    0    0 -9.7080898189e-02 +5.4810599781e-02 -8.0545589814e-02 1.3753819778e-01 5.1100000000e-04 0.0000e+00 -1.0000e+00
  1000022  1    4    4    0    0 +6.6330515761e+01 +1.0148467669e+03 -1.6144972403e+03 2.9501550869e+03 2.2500000000e+03 0.0000e+00 0.0000e+00
<mgrwt>
<rscale>  0 0.54101187E+04</rscale>
<asrwt>0</asrwt>
<pdfrwt beam="1">  1        1 0.34730635E+00 0.54101187E+04</pdfrwt>
<pdfrwt beam="2">  1       -1 0.49867105E+00 0.54101187E+04</pdfrwt>
<totfact> 0.21309288E-03</totfact>
</mgrwt>
</event>
<event>
 8      1 +1.2359593e-08 4.61167800e+03 7.81860800e-03 7.89137200e-02
        2 -1    0    0  501    0 +0.0000000000e+00 +0.0000000000e+00 +2.5139439263e+03 2.5139439263e+03 2.5500000000e-03 0.0000e+00 1.0000e+00
       -2 -1    0    0    0  501 -0.0000000000e+00 -0.0000000000e+00 -2.1149609320e+03 2.1149609320e+03 2.5500000000e-03 0.0000e+00 -1.0000e+00
  1000011  2    1    2    0    0 -3.5462899608e+02 -3.4235874466e+02 +9.4339468339e+01 2.3053899951e+03 2.2501004109e+03 1.3900e+03 0.0000e+00
 -1000011  2    1    2    0    0 +3.5462899608e+02 +3.4235874466e+02 +3.0464352601e+02 2.3235148632e+03 2.2500983105e+03 1.4757e+03 0.0000e+00
       11  1    3    3    0    0 +6.1809567711e-02 -5.7966901787e-02 -4.3636753915e-02 9.5315327114e-02 5.1100000000e-04 0.0000e+00 1.0000e+00
  1000022  1    3    3    0    0 -3.5469080565e+02 -3.4230077776e+02 +9.4383105093e+01 2.3052946798e+03 2.2500000000e+03 0.0000e+00 0.0000e+00
      -11  1    4    4    0    0 +6.6053056464e-02 +1.9458766849e-02 -7.0921049951e-02 9.8851939357e-02 5.1100000000e-04 0.0000e+00 -1.0000e+00
  1000022  1    4    4    0    0 +3.5456294302e+02 +3.4233928590e+02 +3.0471444706e+02 2.3234160113e+03 2.2500000000e+03 0.0000e+00 0.0000e+00
<mgrwt>
<rscale>  0 0.46116779E+04</rscale>
<asrwt>0</asrwt>
<pdfrwt beam="1">  1        2 0.38676060E+00 0.46116779E+04</pdfrwt>
<pdfrwt beam="2">  1       -2 0.32537861E+00 0.46116779E+04</pdfrwt>
<totfact> 0.56899351E-02</totfact>
</mgrwt>
</event>
<event>
 8      1 +1.2359593e-08 5.23807500e+03 7.81860800e-03 7.79279600e-02
        2 -1    0    0  501    0 +0.0000000000e+00 +0.0000000000e+00 +3.5365335541e+03 3.5365335541e+03 2.5500000000e-03 0.0000e+00 1.0000e+00
       -2 -1    0    0    0  501 -0.0000000000e+00 -0.0000000000e+00 -1.9395705141e+03 1.9395705141e+03 2.5500000000e-03 0.0000e+00 -1.0000e+00
  1000011  2    1    2    0    0 -1.3294033689e+03 +5.4054103986e+01 +6.2935945361e+02 2.6887339734e+03 2.2501026409e+03 9.8048e+01 0.0000e+00
 -1000011  2    1    2    0    0 +1.3294033689e+03 -5.4054103986e+01 +9.6760358639e+02 2.7873700949e+03 2.2500978161e+03 6.0534e+01 0.0000e+00
       11  1    3    3    0    0 -1.0020406639e-01 +9.9708378965e-02 +3.5758494491e-02 1.4581339505e-01 5.1100000000e-04 0.0000e+00 1.0000e+00
  1000022  1    3    3    0    0 -1.3293031648e+03 +5.3954395607e+01 +6.2932369512e+02 2.6885881600e+03 2.2500000000e+03 0.0000e+00 0.0000e+00
      -11  1    4    4    0    0 -6.5508594485e-03 +1.5396213588e-03 -5.5970878909e-02 5.6376274186e-02 5.1100000000e-04 0.0000e+00 -1.0000e+00
  1000022  1    4    4    0    0 +1.3294099197e+03 -5.4055643607e+01 +9.6765955727e+02 2.7873137186e+03 2.2500000000e+03 0.0000e+00 0.0000e+00
<mgrwt>
<rscale>  0 0.52380745E+04</rscale>
<asrwt>0</asrwt>
<pdfrwt beam="1">  1        2 0.54408208E+00 0.52380745E+04</pdfrwt>
<pdfrwt beam="2">  1       -2 0.29839546E+00 0.52380745E+04</pdfrwt>
<totfact> 0.17758156E-02</totfact>
</mgrwt>
</event>
<event>
 8      1 +1.2359593e-08 5.26039100e+03 7.81860800e-03 7.78954800e-02
        2 -1    0    0  501    0 +0.0000000000e+00 +0.0000000000e+00 +2.4593906395e+03 2.4593906395e+03 2.5500000000e-03 0.0000e+00 1.0000e+00
       -2 -1    0    0    0  501 -0.0000000000e+00 -0.0000000000e+00 -2.8128630728e+03 2.8128630728e+03 2.5500000000e-03 0.0000e+00 -1.0000e+00
  1000011  2    1    2    0    0 -5.1337009849e+02 -1.1091372054e+02 +1.0827282496e+03 2.5516851859e+03 2.2500991342e+03 1.9937e+02 0.0000e+00
 -1000011  2    1    2    0    0 +5.1337009849e+02 +1.1091372054e+02 -1.4362006828e+03 2.7205685264e+03 2.2501044407e+03 9.8401e+02 0.0000e+00
       11  1    3    3    0    0 -8.0168624595e-02 +2.6088262357e-02 +1.3624864579e-01 1.6022346947e-01 5.1100000000e-04 0.0000e+00 1.0000e+00
  1000022  1    3    3    0    0 -5.1328992987e+02 -1.1093980881e+02 +1.0825920009e+03 2.5515249624e+03 2.2500000000e+03 0.0000e+00 0.0000e+00
      -11  1    4    4    0    0 -2.8852669700e-03 -8.0536868679e-03 -1.8068811633e-01 1.8089124620e-01 5.1100000000e-04 0.0000e+00 -1.0000e+00
  1000022  1    4    4    0    0 +5.1337298376e+02 +1.1092177423e+02 -1.4360199947e+03 2.7203876352e+03 2.2500000000e+03 0.0000e+00 0.0000e+00
<mgrwt>
<rscale>  0 0.52603913E+04</rscale>
<asrwt>0</asrwt>
<pdfrwt beam="1">  1        2 0.37836779E+00 0.52603913E+04</pdfrwt>
<pdfrwt beam="2">  1       -2 0.43274816E+00 0.52603913E+04</pdfrwt>
<totfact> 0.11860146E-02</totfact>
</mgrwt>
</event>
<event>
 8      1 +1.2359593e-08 4.60513700e+03 7.81860800e-03 7.89248500e-02
        2 -1    0    0  501    0 +0.0000000000e+00 +0.0000000000e+00 +2.9860160088e+03 2.9860160088e+03 2.5500000000e-03 0.0000e+00 1.0000e+00
       -2 -1    0    0    0  501 -0.0000000000e+00 -0.0000000000e+00 -1.7755503204e+03 1.7755503204e+03 2.5500000000e-03 0.0000e+00 -1.0000e+00
  1000011  2    1    2    0    0 -1.4219050680e+02 -3.6450972835e+02 +3.0238612362e+02 2.3037960298e+03 2.2501007304e+03 4.9361e+02 0.0000e+00
 -1000011  2    1    2    0    0 +1.4219050680e+02 +3.6450972835e+02 +9.0807956477e+02 2.4577702994e+03 2.2500979682e+03 5.9463e+02 0.0000e+00
       11  1    3    3    0    0 +1.4744040543e-02 -2.3823934104e-03 +1.1148303023e-01 1.1248017265e-01 5.1100000000e-04 0.0000e+00 1.0000e+00
  1000022  1    3    3    0    0 -1.4220525084e+02 -3.6450734596e+02 +3.0227464059e+02 2.3036835497e+03 2.2500000000e+03 0.0000e+00 0.0000e+00
      -11  1    4    4    0    0 -3.2446753642e-02 +1.0661288388e-01 +4.8623884137e-02 1.2158799889e-01 5.1100000000e-04 0.0000e+00 -1.0000e+00
  1000022  1    4    4    0    0 +1.4222295355e+02 +3.6440311547e+02 +9.0803094089e+02 2.4576487114e+03 2.2500000000e+03 0.0000e+00 0.0000e+00
<mgrwt>
<rscale>  0 0.46051370E+04</rscale>
<asrwt>0</asrwt>
<pdfrwt beam="1">  1        2 0.45938708E+00 0.46051370E+04</pdfrwt>
<pdfrwt beam="2">  1       -2 0.27316159E+00 0.46051370E+04</pdfrwt>
<totfact> 0.61849581E-02</totfact>
</mgrwt>
</event>
<event>
 8      1 +1.2359593e-08 5.40550400e+03 7.81860800e-03 7.76882700e-02
       -1 -1    0    0    0  501 -0.0000000000e+00 +0.0000000000e+00 +3.1614712805e+03 3.1614712805e+03 5.0400000000e-03 0.0000e+00 -1.0000e+00
        1 -1    0    0  501    0 +0.0000000000e+00 -0.0000000000e+00 -2.3105912586e+03 2.3105912586e+03 5.0400000000e-03 0.0000e+00 1.0000e+00
  1000011  2    1    2    0    0 +7.6994234097e+02 +9.6304669480e+02 -4.3449109036e+02 2.6023166743e+03 2.2501109797e+03 3.0454e+03 0.0000e+00
 -1000011  2    1    2    0    0 -7.6994234097e+02 -9.6304669480e+02 +1.2853711123e+03 2.8697458648e+03 2.2501093945e+03 6.7368e+02 0.0000e+00
       11  1    3    3    0    0 +1.5159786963e-01 +7.9128306941e-02 -5.2294295294e-02 1.7882437521e-01 5.1100000000e-04 0.0000e+00 1.0000e+00
  1000022  1    3    3    0    0 +7.6979074310e+02 +9.6296756650e+02 -4.3443879607e+02 2.6021378499e+03 2.2500000000e+03 0.0000e+00 0.0000e+00
      -11  1    4    4    0    0 -8.0922051461e-02 -1.6035859313e-01 +7.1575142122e-02 1.9335593725e-01 5.1100000000e-04 0.0000e+00 -1.0000e+00
  1000022  1    4    4    0    0 -7.6986141892e+02 -9.6288633621e+02 +1.2852995372e+03 2.8695525088e+03 2.2500000000e+03 0.0000e+00 0.0000e+00
<mgrwt>
<rscale>  0 0.54055038E+04</rscale>
<asrwt>0</asrwt>
<pdfrwt beam="1">  1        1 0.35547558E+00 0.54055038E+04</pdfrwt>
<pdfrwt beam="2">  1       -1 0.48638020E+00 0.54055038E+04</pdfrwt>
<totfact> 0.23581756E-03</totfact>
</mgrwt>
</event>
<event>
 8      1 +1.2359593e-08 4.94114000e+03 7.81860800e-03 7.83765200e-02
       -2 -1    0    0    0  501 -0.0000000000e+00 +0.0000000000e+00 +1.8126877273e+03 1.8126877273e+03 2.5500000000e-03 0.0000e+00 -1.0000e+00
        2 -1    0    0  501    0 +0.0000000000e+00 -0.0000000000e+00 -3.3672182384e+03 3.3672182384e+03 2.5500000000e-03 0.0000e+00 1.0000e+00
  1000011  2    1    2    0    0 +2.1071436336e+02 -5.1154653422e+02 +1.2128654493e+02 2.3202919673e+03 2.2501031060e+03 2.6852e+02 0.0000e+00
 -1000011  2    1    2    0    0 -2.1071436336e+02 +5.1154653422e+02 -1.6758170560e+03 2.8596139984e+03 2.2500997789e+03 7.3300e+02 0.0000e+00
       11  1    3    3    0    0 +7.7450457353e-02 -1.0442905940e-01 +1.4095724158e-02 1.3077825434e-01 5.1100000000e-04 0.0000e+00 1.0000e+00
  1000022  1    3    3    0    0 +2.1063691290e+02 -5.1144210516e+02 +1.2127244921e+02 2.3201611890e+03 2.2500000000e+03 0.0000e+00 0.0000e+00
      -11  1    4    4    0    0 -8.2142572866e-02 +1.2195901506e-02 -1.6079893072e-01 1.8097706813e-01 5.1100000000e-04 0.0000e+00 -1.0000e+00
  1000022  1    4    4    0    0 -2.1063222078e+02 +5.1153433832e+02 -1.6756562571e+03 2.8594330214e+03 2.2500000000e+03 0.0000e+00 0.0000e+00
<mgrwt>
<rscale>  0 0.49411396E+04</rscale>
<asrwt>0</asrwt>
<pdfrwt beam="1">  1        2 0.51803357E+00 0.49411396E+04</pdfrwt>
<pdfrwt beam="2">  1       -2 0.27887504E+00 0.49411396E+04</pdfrwt>
<totfact> 0.31361606E-02</totfact>
</mgrwt>
</event>
<event>
 8      1 +1.2359593e-08 4.52501200e+03 7.81860800e-03 7.90627300e-02
        1 -1    0    0  501    0 +0.0000000000e+00 +0.0000000000e+00 +3.0789280381e+03 3.0789280381e+03 5.0400000000e-03 0.0000e+00 1.0000e+00
       -1 -1    0    0    0  501 -0.0000000000e+00 -0.0000000000e+00 -1.6625698706e+03 1.6625698706e+03 5.0400000000e-03 0.0000e+00 -1.0000e+00
  1000011  2    1    2    0    0 +6.9629279343e+01 +2.1725854479e+02 +6.4253458960e+02 2.3511379417e+03 2.2500998668e+03 1.9180e+03 0.0000e+00
 -1000011  2    1    2    0    0 -6.9629279343e+01 -2.1725854479e+02 +7.7382357797e+02 2.3903599670e+03 2.2501040709e+03 1.2124e+03 0.0000e+00
       11  1    3    3    0    0 +5.3247853665e-02 +5.0540471144e-02 +1.0934040008e-01 1.3170139362e-01 5.1100000000e-04 0.0000e+00 1.0000e+00
  1000022  1    3    3    0    0 +6.9576031490e+01 +2.1720800432e+02 +6.4242524920e+02 2.3510062403e+03 2.2500000000e+03 0.0000e+00 0.0000e+00
      -11  1    4    4    0    0 +8.7645607346e-02 -6.3825329940e-03 -1.8866786255e-02 8.9881619703e-02 5.1100000000e-04 0.0000e+00 -1.0000e+00
  1000022  1    4    4    0    0 -6.9716924951e+01 -2.1725216226e+02 +7.7384244475e+02 2.3902700854e+03 2.2500000000e+03 0.0000e+00 0.0000e+00
<mgrwt>
<rscale>  0 0.45250118E+04</rscale>
<asrwt>0</asrwt>
<pdfrwt beam="1">  1        1 0.47368123E+00 0.45250118E+04</pdfrwt>
<pdfrwt beam="2">  1       -1 0.25577998E+00 0.45250118E+04</pdfrwt>
<totfact> 0.25063900E-02</totfact>
</mgrwt>
</event>
<event>
 8      1 +1.2359593e-08 5.08780200e+03 7.81860800e-03 7.81510400e-02
        2 -1    0    0  501    0 +0.0000000000e+00 +0.0000000000e+00 +2.1658203343e+03 2.1658203343e+03 2.5500000000e-03 0.0000e+00 1.0000e+00
       -2 -1    0    0    0  501 -0.0000000000e+00 -0.0000000000e+00 -2.9879826349e+03 2.9879826349e+03 2.5500000000e-03 0.0000e+00 -1.0000e+00
  1000011  2    1    2    0    0 +2.0400750797e+02 -1.1027533404e+03 -1.7707206912e+01 2.5141508542e+03 2.2501015486e+03 1.1363e+03 0.0000e+00
 -1000011  2    1    2    0    0 -2.0400750797e+02 +1.1027533404e+03 -8.0445509366e+02 2.6396521150e+03 2.2500958418e+03 2.5524e+03 0.0000e+00
       11  1    3    3    0    0 -2.4677470285e-02 -9.2870588316e-02 +8.6074154846e-02 1.2900753797e-01 5.1100000000e-04 0.0000e+00 1.0000e+00
  1000022  1    3    3    0    0 +2.0403218544e+02 -1.1026604699e+03 -1.7793281067e+01 2.5140218466e+03 2.2500000000e+03 0.0000e+00 0.0000e+00
      -11  1    4    4    0    0 -4.7491605534e-02 +3.5538305402e-02 -1.2491142697e-01 1.3828068922e-01 5.1100000000e-04 0.0000e+00 -1.0000e+00
  1000022  1    4    4    0    0 -2.0396001636e+02 +1.1027178021e+03 -8.0433018223e+02 2.6395138343e+03 2.2500000000e+03 0.0000e+00 0.0000e+00
<mgrwt>
<rscale>  0 0.50878025E+04</rscale>
<asrwt>0</asrwt>
<pdfrwt beam="1">  1        2 0.33320313E+00 0.50878025E+04</pdfrwt>
<pdfrwt beam="2">  1       -2 0.45968964E+00 0.50878025E+04</pdfrwt>
<totfact> 0.11732793E-02</totfact>
</mgrwt>
</event>
<event>
 8      1 +1.2359593e-08 5.16293400e+03 7.81860800e-03 7.80385300e-02
       -2 -1    0    0    0  501 -0.0000000000e+00 +0.0000000000e+00 +2.3947641459e+03 2.3947641459e+03 2.5500000000e-03 0.0000e+00 1.0000e+00
        2 -1    0    0  501    0 +0.0000000000e+00 -0.0000000000e+00 -2.7827258378e+03 2.7827258378e+03 2.5500000000e-03 0.0000e+00 -1.0000e+00
  1000011  2    1    2    0    0 +9.1808663066e+02 +6.3166460690e+02 +4.0698249312e+02 2.5437141433e+03 2.2501030324e+03 2.2062e+02 0.0000e+00
 -1000011  2    1    2    0    0 -9.1808663066e+02 -6.3166460690e+02 -7.9494418500e+02 2.6337758403e+03 2.2501012605e+03 1.2026e+02 0.0000e+00
       11  1    3    3    0    0 +4.7068377356e-02 +6.3017595917e-02 +1.1924888121e-01 1.4285379268e-01 5.1100000000e-04 0.0000e+00 1.0000e+00
  1000022  1    3    3    0    0 +9.1803956228e+02 +6.3160158930e+02 +4.0686324424e+02 2.5435712896e+03 2.2500000000e+03 0.0000e+00 0.0000e+00
      -11  1    4    4    0    0 -1.2759313514e-01 -7.9121112433e-02 -9.9014459518e-02 1.7984516246e-01 5.1100000000e-04 0.0000e+00 -1.0000e+00
  1000022  1    4    4    0    0 -9.1795903752e+02 -6.3158548578e+02 -7.9484517054e+02 2.6335959951e+03 2.2500000000e+03 0.0000e+00 0.0000e+00
<mgrwt>
<rscale>  0 0.51629341E+04</rscale>
<asrwt>0</asrwt>
<pdfrwt beam="1">  1        2 0.42811167E+00 0.51629341E+04</pdfrwt>
<pdfrwt beam="2">  1       -2 0.36842525E+00 0.51629341E+04</pdfrwt>
<totfact> 0.20230585E-02</totfact>
</mgrwt>
</event>
<event>
 8      1 +1.2359593e-08 4.67296400e+03 7.81860800e-03 7.88103600e-02
        2 -1    0    0  501    0 +0.0000000000e+00 +0.0000000000e+00 +1.8379570645e+03 1.8379570645e+03 2.5500000000e-03 0.0000e+00 1.0000e+00
       -2 -1    0    0    0  501 -0.0000000000e+00 -0.0000000000e+00 -2.9702265927e+03 2.9702265927e+03 2.5500000000e-03 0.0000e+00 -1.0000e+00
  1000011  2    1    2    0    0 -4.5390903150e+02 -4.2374721945e+02 -4.6020752083e+02 2.3791466769e+03 2.2501006274e+03 2.4094e+03 0.0000e+00
 -1000011  2    1    2    0    0 +4.5390903150e+02 +4.2374721945e+02 -6.7206200733e+02 2.4290369802e+03 2.2501018187e+03 3.0205e+03 0.0000e+00
       11  1    3    3    0    0 +3.9650044075e-02 +6.0002608919e-02 -4.7253862195e-02 8.6055956328e-02 5.1100000000e-04 0.0000e+00 1.0000e+00
  1000022  1    3    3    0    0 -4.5394868154e+02 -4.2380722206e+02 -4.6016026697e+02 2.3790606210e+03 2.2500000000e+03 0.0000e+00 0.0000e+00
      -11  1    4    4    0    0 +8.1200446993e-02 -6.1722607787e-02 -4.2347553837e-02 1.1043898286e-01 5.1100000000e-04 0.0000e+00 -1.0000e+00
  1000022  1    4    4    0    0 +4.5382783105e+02 +4.2380894206e+02 -6.7201965978e+02 2.4289265412e+03 2.2500000000e+03 0.0000e+00 0.0000e+00
<mgrwt>
<rscale>  0 0.46729643E+04</rscale>
<asrwt>0</asrwt>
<pdfrwt beam="1">  1        2 0.28276262E+00 0.46729643E+04</pdfrwt>
<pdfrwt beam="2">  1       -2 0.45695794E+00 0.46729643E+04</pdfrwt>
<totfact> 0.19219797E-02</totfact>
</mgrwt>
</event>
<event>
 8      1 +1.2359593e-08 5.08342900e+03 7.81860800e-03 7.81576500e-02
       -1 -1    0    0    0  501 -0.0000000000e+00 +0.0000000000e+00 +2.1171167709e+03 2.1171167709e+03 5.0400000000e-03 0.0000e+00 -1.0000e+00
        1 -1    0    0  501    0 +0.0000000000e+00 -0.0000000000e+00 -3.0514676041e+03 3.0514676041e+03 5.0400000000e-03 0.0000e+00 1.0000e+00
  1000011  2    1    2    0    0 +5.5327958805e+02 +9.3095246625e+01 +5.9072239831e+02 2.3930499848e+03 2.2501000534e+03 8.9966e+02 0.0000e+00
 -1000011  2    1    2    0    0 -5.5327958805e+02 -9.3095246625e+01 -1.5250732315e+03 2.7755343902e+03 2.2501017226e+03 5.0812e+01 0.0000e+00
       11  1    3    3    0    0 +1.6661930529e-03 +2.8401004225e-02 -7.2316744497e-02 7.7713356448e-02 5.1100000000e-04 0.0000e+00 1.0000e+00
  1000022  1    3    3    0    0 +5.5327792186e+02 +9.3066845621e+01 +5.9079471505e+02 2.3929722714e+03 2.2500000000e+03 0.0000e+00 0.0000e+00
      -11  1    4    4    0    0 -6.2504769595e-02 -3.2992753260e-02 -1.8406392571e-01 1.9716784059e-01 5.1100000000e-04 0.0000e+00 -1.0000e+00
  1000022  1    4    4    0    0 -5.5321708328e+02 -9.3062253872e+01 -1.5248891676e+03 2.7753372224e+03 2.2500000000e+03 0.0000e+00 0.0000e+00
<mgrwt>
<rscale>  0 0.50834293E+04</rscale>
<asrwt>0</asrwt>
<pdfrwt beam="1">  1        1 0.46945656E+00 0.50834293E+04</pdfrwt>
<pdfrwt beam="2">  1       -1 0.32571027E+00 0.50834293E+04</pdfrwt>
<totfact> 0.88264251E-03</totfact>
</mgrwt>
</event>
<event>
 8      1 +1.2359593e-08 4.61624100e+03 7.81860800e-03 7.89059700e-02
       -2 -1    0    0    0  501 -0.0000000000e+00 +0.0000000000e+00 +2.0948852562e+03 2.0948852562e+03 2.5500000000e-03 0.0000e+00 -1.0000e+00
        2 -1    0    0  501    0 +0.0000000000e+00 -0.0000000000e+00 -2.5430605495e+03 2.5430605495e+03 2.5500000000e-03 0.0000e+00 1.0000e+00
  1000011  2    1    2    0    0 -3.8935067740e+02 +1.1730260924e+02 -5.4038930644e+02 2.3495378347e+03 2.2501007938e+03 2.6056e+03 0.0000e+00
 -1000011  2    1    2    0    0 +3.8935067740e+02 -1.1730260924e+02 +9.2214013197e+01 2.2884079709e+03 2.2501008344e+03 2.1296e+02 0.0000e+00
       11  1    3    3    0    0 -8.4638035734e-02 -2.7991454852e-02 -9.6446366236e-02 1.3133651727e-01 5.1100000000e-04 0.0000e+00 1.0000e+00
  1000022  1    3    3    0    0 -3.8926603936e+02 +1.1733060069e+02 -5.4029286008e+02 2.3494064982e+03 2.2500000000e+03 0.0000e+00 0.0000e+00
      -11  1    4    4    0    0 +3.7709234513e-02 +4.1334583356e-02 +9.1347626158e-02 1.0712228469e-01 5.1100000000e-04 0.0000e+00 -1.0000e+00
  1000022  1    4    4    0    0 +3.8931296817e+02 -1.1734394382e+02 +9.2122665571e+01 2.2883008486e+03 2.2500000000e+03 0.0000e+00 0.0000e+00
<mgrwt>
<rscale>  0 0.46162409E+04</rscale>
<asrwt>0</asrwt>
<pdfrwt beam="1">  1        2 0.39124008E+00 0.46162409E+04</pdfrwt>
<pdfrwt beam="2">  1       -2 0.32229004E+00 0.46162409E+04</pdfrwt>
<totfact> 0.57164815E-02</totfact>
</mgrwt>
</event>
<event>
 8      1 +1.2359593e-08 4.78554700e+03 7.81860800e-03 7.86246800e-02
        2 -1    0    0  501    0 +0.0000000000e+00 +0.0000000000e+00 +3.0941345114e+03 3.0941345114e+03 2.5500000000e-03 0.0000e+00 1.0000e+00
       -2 -1    0    0    0  501 -0.0000000000e+00 -0.0000000000e+00 -1.8503928480e+03 1.8503928480e+03 2.5500000000e-03 0.0000e+00 -1.0000e+00
  1000011  2    1    2    0    0 +1.4859008408e+02 -1.4535213019e+02 -1.9116509146e+02 2.2677535532e+03 2.2501012935e+03 9.9067e+02 0.0000e+00
 -1000011  2    1    2    0    0 -1.4859008408e+02 +1.4535213019e+02 +1.4349067549e+03 2.6767738062e+03 2.2501009665e+03 5.8465e+02 0.0000e+00
       11  1    3    3    0    0 +3.0184381019e-02 +8.1974528746e-02 -5.1877562652e-02 1.0159951920e-01 5.1100000000e-04 0.0000e+00 1.0000e+00
  1000022  1    3    3    0    0 +1.4855989970e+02 -1.4543410472e+02 -1.9111321390e+02 2.2676519537e+03 2.2500000000e+03 0.0000e+00 0.0000e+00
      -11  1    4    4    0    0 +8.9291417209e-02 -2.3674295979e-02 +7.3246320899e-02 1.1789280628e-01 5.1100000000e-04 0.0000e+00 -1.0000e+00
  1000022  1    4    4    0    0 -1.4867937550e+02 +1.4537580449e+02 +1.4348335086e+03 2.6766559134e+03 2.2500000000e+03 0.0000e+00 0.0000e+00
<mgrwt>
<rscale>  0 0.47855467E+04</rscale>
<asrwt>0</asrwt>
<pdfrwt beam="1">  1        2 0.47602069E+00 0.47855467E+04</pdfrwt>
<pdfrwt beam="2">  1       -2 0.28467583E+00 0.47855467E+04</pdfrwt>
<totfact> 0.44294684E-02</totfact>
</mgrwt>
</event>
<event>
 8      1 +1.2359593e-08 4.70362800e+03 7.81860800e-03 7.87592600e-02
        2 -1    0    0  501    0 +0.0000000000e+00 +0.0000000000e+00 +2.2186235859e+03 2.2186235859e+03 2.5500000000e-03 0.0000e+00 -1.0000e+00
       -2 -1    0    0    0  501 -0.0000000000e+00 -0.0000000000e+00 -2.4929997471e+03 2.4929997471e+03 2.5500000000e-03 0.0000e+00 1.0000e+00
  1000011  2    1    2    0    0 -3.8124486603e+02 -3.4559029268e+02 -5.8884574638e+02 2.3821128077e+03 2.2500981794e+03 2.3137e+03 0.0000e+00
 -1000011  2    1    2    0    0 +3.8124486603e+02 +3.4559029268e+02 +3.1446958516e+02 2.3295105254e+03 2.2500995244e+03 4.4706e+03 0.0000e+00
       11  1    3    3    0    0 -6.3111524630e-02 -2.1146029383e-02 -1.1735037030e-01 1.3491326665e-01 5.1100000000e-04 0.0000e+00 1.0000e+00
  1000022  1    3    3    0    0 -3.8118175451e+02 -3.4556914665e+02 -5.8872839601e+02 2.3819778944e+03 2.2500000000e+03 0.0000e+00 0.0000e+00
      -11  1    4    4    0    0 +1.8414210472e-02 -3.6889384936e-02 +9.8735265009e-02 1.0699917452e-01 5.1100000000e-04 0.0000e+00 -1.0000e+00
  1000022  1    4    4    0    0 +3.8122645182e+02 +3.4562718206e+02 +3.1437084990e+02 2.3294035262e+03 2.2500000000e+03 0.0000e+00 0.0000e+00
<mgrwt>
<rscale>  0 0.47036276E+04</rscale>
<asrwt>0</asrwt>
<pdfrwt beam="1">  1        2 0.34132670E+00 0.47036276E+04</pdfrwt>
<pdfrwt beam="2">  1       -2 0.38353842E+00 0.47036276E+04</pdfrwt>
<totfact> 0.35693524E-02</totfact>
</mgrwt>
</event>
<event>
 8      1 +1.2359593e-08 4.77502700e+03 7.81860800e-03 7.86418100e-02
       -2 -1    0    0    0  501 -0.0000000000e+00 +0.0000000000e+00 +1.7727074023e+03 1.7727074023e+03 2.5500000000e-03 0.0000e+00 -1.0000e+00
        2 -1    0    0  501    0 +0.0000000000e+00 -0.0000000000e+00 -3.2155455281e+03 3.2155455281e+03 2.5500000000e-03 0.0000e+00 1.0000e+00
  1000011  2    1    2    0    0 +4.3176607575e+02 +6.4911717026e+02 -9.0080482176e+02 2.5460138345e+03 2.2501026806e+03 1.9221e+02 0.0000e+00
 -1000011  2    1    2    0    0 -4.3176607575e+02 -6.4911717026e+02 -5.4203330396e+02 2.4422390960e+03 2.2501014765e+03 3.3923e+03 0.0000e+00
       11  1    3    3    0    0 +1.0917240808e-01 +8.8614377662e-02 -6.4069839669e-02 1.5451966746e-01 5.1100000000e-04 0.0000e+00 1.0000e+00
  1000022  1    3    3    0    0 +4.3165690335e+02 +6.4902855588e+02 -9.0074075192e+02 2.5458593148e+03 2.2500000000e+03 0.0000e+00 0.0000e+00
      -11  1    4    4    0    0 +4.2101606765e-02 -9.1902699319e-02 +2.6685854969e-02 1.0455164653e-01 5.1100000000e-04 0.0000e+00 -1.0000e+00
  1000022  1    4    4    0    0 -4.3180817736e+02 -6.4902526756e+02 -5.4205998982e+02 2.4421345443e+03 2.2500000000e+03 0.0000e+00 0.0000e+00
<mgrwt>
<rscale>  0 0.47750273E+04</rscale>
<asrwt>0</asrwt>
<pdfrwt beam="1">  1        2 0.49469931E+00 0.47750273E+04</pdfrwt>
<pdfrwt beam="2">  1       -2 0.27272422E+00 0.47750273E+04</pdfrwt>
<totfact> 0.43747726E-02</totfact>
</mgrwt>
</event>
<event>
 8      1 +1.2359593e-08 5.15729700e+03 7.81860800e-03 7.80469000e-02
        2 -1    0    0  501    0 +0.0000000000e+00 +0.0000000000e+00 +3.2080020549e+03 3.2080020549e+03 2.5500000000e-03 0.0000e+00 1.0000e+00
       -2 -1    0    0    0  501 -0.0000000000e+00 -0.0000000000e+00 -2.0727627574e+03 2.0727627574e+03 2.5500000000e-03 0.0000e+00 -1.0000e+00
  1000011  2    1    2    0    0 -7.8103397682e+02 -7.8397610507e+02 -4.8315909145e+01 2.5079634477e+03 2.2500919141e+03 6.8236e+02 0.0000e+00
 -1000011  2    1    2    0    0 +7.8103397682e+02 +7.8397610507e+02 +1.1835552066e+03 2.7728013645e+03 2.2501093027e+03 3.3050e+01 0.0000e+00
       11  1    3    3    0    0 -6.4555499046e-02 -1.1982137864e-01 +3.0298265248e-02 1.3943751616e-01 5.1100000000e-04 0.0000e+00 1.0000e+00
  1000022  1    3    3    0    0 -7.8096942132e+02 -7.8385628369e+02 -4.8346207410e+01 2.5078240102e+03 2.2500000000e+03 0.0000e+00 0.0000e+00
      -11  1    4    4    0    0 +1.2718525369e-01 +1.2039668631e-01 +7.3408241302e-02 1.8989597623e-01 5.1100000000e-04 0.0000e+00 -1.0000e+00
  1000022  1    4    4    0    0 +7.8090679156e+02 +7.8385570838e+02 +1.1834817983e+03 2.7726114686e+03 2.2500000000e+03 0.0000e+00 0.0000e+00
<mgrwt>
<rscale>  0 0.51572967E+04</rscale>
<asrwt>0</asrwt>
<pdfrwt beam="1">  1        2 0.49353878E+00 0.51572967E+04</pdfrwt>
<pdfrwt beam="2">  1       -2 0.31888658E+00 0.51572967E+04</pdfrwt>
<totfact> 0.22388340E-02</totfact>
</mgrwt>
</event>
<event>
 8      1 +1.2359593e-08 4.57062800e+03 7.81860800e-03 7.89838700e-02
       -2 -1    0    0    0  501 -0.0000000000e+00 +0.0000000000e+00 +2.1251422333e+03 2.1251422333e+03 2.5500000000e-03 0.0000e+00 -1.0000e+00
        2 -1    0    0  501    0 +0.0000000000e+00 -0.0000000000e+00 -2.4575580203e+03 2.4575580203e+03 2.5500000000e-03 0.0000e+00 1.0000e+00
  1000011  2    1    2    0    0 -1.2735595529e+02 -9.8568055310e+01 +2.0051085424e+02 2.2647482700e+03 2.2500988696e+03 1.6186e+01 0.0000e+00
 -1000011  2    1    2    0    0 +1.2735595529e+02 +9.8568055310e+01 -5.3292664128e+02 2.3179519836e+03 2.2501011960e+03 3.1286e+02 0.0000e+00
       11  1    3    3    0    0 -4.2706240780e-04 -8.4259130850e-02 -4.9181733197e-02 9.7564785080e-02 5.1100000000e-04 0.0000e+00 1.0000e+00
  1000022  1    3    3    0    0 -1.2735552823e+02 -9.8483796179e+01 +2.0056003598e+02 2.2646507052e+03 2.2500000000e+03 0.0000e+00 0.0000e+00
      -11  1    4    4    0    0 -7.6206813408e-02 -4.9472675076e-03 +3.7698441893e-02 8.5166820279e-02 5.1100000000e-04 0.0000e+00 -1.0000e+00
  1000022  1    4    4    0    0 +1.2743216211e+02 +9.8573002578e+01 -5.3296433972e+02 2.3178668168e+03 2.2500000000e+03 0.0000e+00 0.0000e+00
<mgrwt>
<rscale>  0 0.45706281E+04</rscale>
<asrwt>0</asrwt>
<pdfrwt beam="1">  1        2 0.37808585E+00 0.45706281E+04</pdfrwt>
<pdfrwt beam="2">  1       -2 0.32694496E+00 0.45706281E+04</pdfrwt>
<totfact> 0.60184755E-02</totfact>
</mgrwt>
</event>
<event>
 8      1 +1.2359593e-08 5.20407200e+03 7.81860800e-03 7.79777600e-02
        2 -1    0    0  501    0 +0.0000000000e+00 +0.0000000000e+00 +2.7609819354e+03 2.7609819354e+03 2.5500000000e-03 0.0000e+00 1.0000e+00
       -2 -1    0    0    0  501 -0.0000000000e+00 -0.0000000000e+00 -2.4522401785e+03 2.4522401785e+03 2.5500000000e-03 0.0000e+00 -1.0000e+00
  1000011  2    1    2    0    0 -8.9131721428e+02 -7.6850391906e+02 +7.2333835510e+02 2.6403079023e+03 2.2501028406e+03 9.0843e+02 0.0000e+00
 -1000011  2    1    2    0    0 +8.9131721428e+02 +7.6850391906e+02 -4.1459659817e+02 2.5729142116e+03 2.2501005646e+03 1.2760e+02 0.0000e+00
       11  1    3    3    0    0 -8.5318979607e-03 -3.4569183281e-02 +1.3203732371e-01 1.3675502732e-01 5.1100000000e-04 0.0000e+00 1.0000e+00
  1000022  1    3    3    0    0 -8.9130868239e+02 -7.6846934988e+02 +7.2320631778e+02 2.6401711473e+03 2.2500000000e+03 0.0000e+00 0.0000e+00
      -11  1    4    4    0    0 +1.2750134077e-01 +1.0467618201e-01 -4.1023250239e-02 1.6999077250e-01 5.1100000000e-04 0.0000e+00 -1.0000e+00
  1000022  1    4    4    0    0 +8.9118971294e+02 +7.6839924288e+02 -4.1455557492e+02 2.5727442208e+03 2.2500000000e+03 0.0000e+00 0.0000e+00
<mgrwt>
<rscale>  0 0.52040718E+04</rscale>
<asrwt>0</asrwt>
<pdfrwt beam="1">  1        2 0.42476645E+00 0.52040718E+04</pdfrwt>
<pdfrwt beam="2">  1       -2 0.37726772E+00 0.52040718E+04</pdfrwt>
<totfact> 0.18239454E-02</totfact>
</mgrwt>
</event>
<event>
 8      1 +1.2359593e-08 5.63128200e+03 7.81860800e-03 7.73787900e-02
        2 -1    0    0  501    0 +0.0000000000e+00 +0.0000000000e+00 +2.1880718014e+03 2.1880718014e+03 2.5500000000e-03 0.0000e+00 1.0000e+00
       -2 -1    0    0    0  501 -0.0000000000e+00 -0.0000000000e+00 -3.6232060161e+03 3.6232060161e+03 2.5500000000e-03 0.0000e+00 -1.0000e+00
  1000011  2    1    2    0    0 +3.2808437288e+02 -1.0854506854e+03 +5.7919228029e+02 2.5853926235e+03 2.2500997253e+03 1.0487e+03 0.0000e+00
 -1000011  2    1    2    0    0 -3.2808437288e+02 +1.0854506854e+03 -2.0143264950e+03 3.2258851941e+03 2.2501069999e+03 1.6139e+03 0.0000e+00
       11  1    3    3    0    0 -9.6378725527e-03 +3.7171959342e-02 +7.8731442997e-02 8.7598768762e-02 5.1100000000e-04 0.0000e+00 1.0000e+00
  1000022  1    3    3    0    0 +3.2809401076e+02 -1.0854878574e+03 +5.7911354885e+02 2.5853050247e+03 2.2500000000e+03 0.0000e+00 0.0000e+00
      -11  1    4    4    0    0 +3.4813748055e-03 -5.7332331055e-03 -1.9232307465e-01 1.9244068105e-01 5.1100000000e-04 0.0000e+00 -1.0000e+00
  1000022  1    4    4    0    0 -3.2808785426e+02 +1.0854564187e+03 -2.0141341719e+03 3.2256927534e+03 2.2500000000e+03 0.0000e+00 0.0000e+00
<mgrwt>
<rscale>  0 0.56312822E+04</rscale>
<asrwt>0</asrwt>
<pdfrwt beam="1">  1        2 0.33662643E+00 0.56312822E+04</pdfrwt>
<pdfrwt beam="2">  1       -2 0.55741631E+00 0.56312822E+04</pdfrwt>
<totfact> 0.28903795E-03</totfact>
</mgrwt>
</event>
<event>
 8      1 +1.2359593e-08 5.12737400e+03 7.81860800e-03 7.80915300e-02
        2 -1    0    0  501    0 +0.0000000000e+00 +0.0000000000e+00 +4.4264313036e+03 4.4264313036e+03 2.5500000000e-03 0.0000e+00 1.0000e+00
       -2 -1    0    0    0  501 -0.0000000000e+00 -0.0000000000e+00 -1.4848286489e+03 1.4848286489e+03 2.5500000000e-03 0.0000e+00 -1.0000e+00
  1000011  2    1    2    0    0 -8.7323333138e+02 +6.8531208557e+02 +8.6364471868e+02 2.6534922509e+03 2.2500999577e+03 1.2150e+02 0.0000e+00
 -1000011  2    1    2    0    0 +8.7323333138e+02 -6.8531208557e+02 +2.0779579360e+03 3.2577677016e+03 2.2501004662e+03 4.8558e+02 0.0000e+00
       11  1    3    3    0    0 +1.6693763362e-02 -1.9234471009e-02 -5.1566229800e-02 5.7515070457e-02 5.1100000000e-04 0.0000e+00 1.0000e+00
  1000022  1    3    3    0    0 -8.7325002515e+02 +6.8533132004e+02 +8.6369628490e+02 2.6534347358e+03 2.2500000000e+03 0.0000e+00 0.0000e+00
      -11  1    4    4    0    0 +9.4503417854e-03 +1.7833828751e-02 -3.8592608321e-02 4.3554616303e-02 5.1100000000e-04 0.0000e+00 -1.0000e+00
  1000022  1    4    4    0    0 +8.7322388104e+02 -6.8532991939e+02 +2.0779965286e+03 3.2577241470e+03 2.2500000000e+03 0.0000e+00 0.0000e+00
<mgrwt>
<rscale>  0 0.51273744E+04</rscale>
<asrwt>0</asrwt>
<pdfrwt beam="1">  1        2 0.68098943E+00 0.51273744E+04</pdfrwt>
<pdfrwt beam="2">  1       -2 0.22843518E+00 0.51273744E+04</pdfrwt>
<totfact> 0.90508979E-03</totfact>
</mgrwt>
</event>
<event>
 8      1 +1.2359593e-08 5.85349200e+03 7.81860800e-03 7.70883700e-02
        2 -1    0    0  501    0 +0.0000000000e+00 +0.0000000000e+00 +2.8120165815e+03 2.8120165815e+03 2.5500000000e-03 0.0000e+00 1.0000e+00
       -2 -1    0    0    0  501 -0.0000000000e+00 -0.0000000000e+00 -3.0461565923e+03 3.0461565923e+03 2.5500000000e-03 0.0000e+00 -1.0000e+00
  1000011  2    1    2    0    0 +1.4978175610e+02 -1.5645107017e+03 -1.1341017360e+03 2.9697461549e+03 2.2501282556e+03 6.5047e+02 0.0000e+00
 -1000011  2    1    2    0    0 -1.4978175610e+02 +1.5645107017e+03 +8.9996172522e+02 2.8884270190e+03 2.2501002704e+03 3.0246e+03 0.0000e+00
       11  1    3    3    0    0 +1.0055636259e-01 -4.3296844707e-02 +3.0124378403e-02 1.1355147574e-01 5.1100000000e-04 0.0000e+00 1.0000e+00
  1000022  1    3    3    0    0 +1.4968119974e+02 -1.5644674048e+03 -1.1341318604e+03 2.9696326034e+03 2.2500000000e+03 0.0000e+00 0.0000e+00
      -11  1    4    4    0    0 -7.9257135509e-02 +1.4248725715e-01 +1.3509072479e-02 1.6360644232e-01 5.1100000000e-04 0.0000e+00 -1.0000e+00
  1000022  1    4    4    0    0 -1.4970249896e+02 +1.5643682144e+03 +8.9994821615e+02 2.8882634126e+03 2.2500000000e+03 0.0000e+00 0.0000e+00
<mgrwt>
<rscale>  0 0.58534922E+04</rscale>
<asrwt>0</asrwt>
<pdfrwt beam="1">  1        2 0.43261794E+00 0.58534922E+04</pdfrwt>
<pdfrwt beam="2">  1       -2 0.46863947E+00 0.58534922E+04</pdfrwt>
<totfact> 0.40773521E-03</totfact>
</mgrwt>
</event>
<event>
 8      1 +1.2359593e-08 5.62863800e+03 7.81860800e-03 7.73823200e-02
       -2 -1    0    0    0  501 -0.0000000000e+00 +0.0000000000e+00 +2.2764169131e+03 2.2764169131e+03 2.5500000000e-03 0.0000e+00 -1.0000e+00
        2 -1    0    0  501    0 +0.0000000000e+00 -0.0000000000e+00 -3.4793242002e+03 3.4793242002e+03 2.5500000000e-03 0.0000e+00 1.0000e+00
  1000011  2    1    2    0    0 -1.1335699571e+03 +6.7583839187e+02 -1.6815708817e+03 3.1036070594e+03 2.2501017242e+03 2.2256e+03 0.0000e+00
 -1000011  2    1    2    0    0 +1.1335699571e+03 -6.7583839187e+02 +4.7866359462e+02 2.6521340539e+03 2.2501017362e+03 5.9647e+01 0.0000e+00
       11  1    3    3    0    0 -1.2257129423e-02 +6.0571407929e-02 -1.7659323526e-01 1.8709506685e-01 5.1100000000e-04 0.0000e+00 1.0000e+00
  1000022  1    3    3    0    0 -1.1335577000e+03 +6.7577782047e+02 -1.6813942884e+03 3.1034199643e+03 2.2500000000e+03 0.0000e+00 0.0000e+00
      -11  1    4    4    0    0 +1.1443152967e-01 -8.2249218693e-02 -4.5257581746e-02 1.4801357500e-01 5.1100000000e-04 0.0000e+00 -1.0000e+00
  1000022  1    4    4    0    0 +1.1334555256e+03 -6.7575614266e+02 +4.7870885220e+02 2.6519860403e+03 2.2500000000e+03 0.0000e+00 0.0000e+00
<mgrwt>
<rscale>  0 0.56286384E+04</rscale>
<asrwt>0</asrwt>
<pdfrwt beam="1">  1        2 0.53528064E+00 0.56286384E+04</pdfrwt>
<pdfrwt beam="2">  1       -2 0.35021799E+00 0.56286384E+04</pdfrwt>
<totfact> 0.90131438E-03</totfact>
</mgrwt>
</event>
<event>
 8      1 +1.2359593e-08 5.17606200e+03 7.81860800e-03 7.80190700e-02
       -2 -1    0    0    0  501 -0.0000000000e+00 +0.0000000000e+00 +2.3987007600e+03 2.3987007600e+03 2.5500000000e-03 0.0000e+00 1.0000e+00
        2 -1    0    0  501    0 +0.0000000000e+00 -0.0000000000e+00 -2.7923054993e+03 2.7923054993e+03 2.5500000000e-03 0.0000e+00 -1.0000e+00
  1000011  2    1    2    0    0 -3.2794676741e+02 +1.1595590730e+03 -6.2562318566e+02 2.6280175342e+03 2.2500989898e+03 1.0650e+02 0.0000e+00
 -1000011  2    1    2    0    0 +3.2794676741e+02 -1.1595590730e+03 +2.3201844640e+02 2.5629887251e+03 2.2501005132e+03 3.6017e+02 0.0000e+00
       11  1    3    3    0    0 +4.5501160560e-03 -4.4413880047e-02 +3.4441127878e-02 5.6389258421e-02 5.1100000000e-04 0.0000e+00 1.0000e+00
  1000022  1    3    3    0    0 -3.2795131753e+02 +1.1596034869e+03 -6.2565762679e+02 2.6279611450e+03 2.2500000000e+03 0.0000e+00 0.0000e+00
      -11  1    4    4    0    0 +2.0631317965e-02 -1.5832662120e-01 +4.8660734067e-02 1.6691644093e-01 5.1100000000e-04 0.0000e+00 -1.0000e+00
  1000022  1    4    4    0    0 +3.2792613610e+02 -1.1594007464e+03 +2.3196978566e+02 2.5628218087e+03 2.2500000000e+03 0.0000e+00 0.0000e+00
<mgrwt>
<rscale>  0 0.51760623E+04</rscale>
<asrwt>0</asrwt>
<pdfrwt beam="1">  1        2 0.42958546E+00 0.51760623E+04</pdfrwt>
<pdfrwt beam="2">  1       -2 0.36903089E+00 0.51760623E+04</pdfrwt>
<totfact> 0.19764786E-02</totfact>
</mgrwt>
</event>
<event>
 8      1 +1.2359593e-08 4.98140400e+03 7.81860800e-03 7.83138200e-02
        2 -1    0    0  501    0 +0.0000000000e+00 +0.0000000000e+00 +3.9168411147e+03 3.9168411147e+03 2.5500000000e-03 0.0000e+00 1.0000e+00
       -2 -1    0    0    0  501 -0.0000000000e+00 -0.0000000000e+00 -1.5838264681e+03 1.5838264681e+03 2.5500000000e-03 0.0000e+00 -1.0000e+00
  1000011  2    1    2    0    0 +7.7477804042e+02 +4.2336806550e+02 +5.0288152170e+02 2.4688593159e+03 2.2500788799e+03 1.2726e+02 0.0000e+00
 -1000011  2    1    2    0    0 -7.7477804042e+02 -4.2336806550e+02 +1.8301331249e+03 3.0318082669e+03 2.2501005715e+03 2.5188e+02 0.0000e+00
       11  1    3    3    0    0 +1.4841873808e-02 +6.0926705257e-02 +8.2787043392e-02 1.0385711433e-01 5.1100000000e-04 0.0000e+00 1.0000e+00
  1000022  1    3    3    0    0 +7.7476319854e+02 +4.2330713879e+02 +5.0279873466e+02 2.4687554588e+03 2.2500000000e+03 0.0000e+00 0.0000e+00
      -11  1    4    4    0    0 +6.6002618560e-02 -4.3353315990e-02 +4.4116165388e-02 9.0456356359e-02 5.1100000000e-04 0.0000e+00 -1.0000e+00
  1000022  1    4    4    0    0 -7.7484404303e+02 -4.2332471218e+02 +1.8300890087e+03 3.0317178106e+03 2.2500000000e+03 0.0000e+00 0.0000e+00
<mgrwt>
<rscale>  0 0.49814041E+04</rscale>
<asrwt>0</asrwt>
<pdfrwt beam="1">  1        2 0.60259093E+00 0.49814041E+04</pdfrwt>
<pdfrwt beam="2">  1       -2 0.24366561E+00 0.49814041E+04</pdfrwt>
<totfact> 0.20355276E-02</totfact>
</mgrwt>
</event>
<event>
 8      1 +1.2359593e-08 4.84705300e+03 7.81860800e-03 7.85254400e-02
       -2 -1    0    0    0  501 -0.0000000000e+00 +0.0000000000e+00 +1.7827860943e+03 1.7827860943e+03 2.5500000000e-03 0.0000e+00 -1.0000e+00
        2 -1    0    0  501    0 +0.0000000000e+00 -0.0000000000e+00 -3.2945519400e+03 3.2945519400e+03 2.5500000000e-03 0.0000e+00 1.0000e+00
  1000011  2    1    2    0    0 +4.2993636038e+02 +4.9413808766e+02 -1.0886399222e+02 2.3460211983e+03 2.2500991912e+03 1.7490e+03 0.0000e+00
 -1000011  2    1    2    0    0 -4.2993636038e+02 -4.9413808766e+02 -1.4029018535e+03 2.7313168361e+03 2.2500978478e+03 1.5161e+02 0.0000e+00
       11  1    3    3    0    0 +9.2639415287e-02 +7.9310972153e-02 +3.5968735966e-02 1.2714677386e-01 5.1100000000e-04 0.0000e+00 1.0000e+00
  1000022  1    3    3    0    0 +4.2984372097e+02 +4.9405877669e+02 -1.0889996095e+02 2.3458940515e+03 2.2500000000e+03 0.0000e+00 0.0000e+00
      -11  1    4    4    0    0 +7.9858879108e-02 -1.2616853296e-02 -3.3431453212e-02 8.7490276702e-02 5.1100000000e-04 0.0000e+00 -1.0000e+00
  1000022  1    4    4    0    0 -4.3001621926e+02 -4.9412547081e+02 -1.4028684221e+03 2.7312293458e+03 2.2500000000e+03 0.0000e+00 0.0000e+00
<mgrwt>
<rscale>  0 0.48470533E+04</rscale>
<asrwt>0</asrwt>
<pdfrwt beam="1">  1        2 0.50685415E+00 0.48470533E+04</pdfrwt>
<pdfrwt beam="2">  1       -2 0.27427478E+00 0.48470533E+04</pdfrwt>
<totfact> 0.37729510E-02</totfact>
</mgrwt>
</event>
<event>
 8      1 +1.2359593e-08 5.19470400e+03 7.81860800e-03 7.79915500e-02
        2 -1    0    0  501    0 +0.0000000000e+00 +0.0000000000e+00 +1.8214709480e+03 1.8214709480e+03 2.5500000000e-03 0.0000e+00 1.0000e+00
       -2 -1    0    0    0  501 -0.0000000000e+00 -0.0000000000e+00 -3.7037297695e+03 3.7037297695e+03 2.5500000000e-03 0.0000e+00 -1.0000e+00
  1000011  2    1    2    0    0 -6.5066477581e+02 -9.6483684750e+02 -1.5512289819e+03 2.9704440141e+03 2.2501003297e+03 8.6572e+01 0.0000e+00
 -1000011  2    1    2    0    0 +6.5066477581e+02 +9.6483684750e+02 -3.3102983953e+02 2.5547567034e+03 2.2500947238e+03 2.3197e+02 0.0000e+00
       11  1    3    3    0    0 -1.2457767894e-01 -8.1364181635e-02 -5.6152021112e-02 1.5903785184e-01 5.1100000000e-04 0.0000e+00 1.0000e+00
  1000022  1    3    3    0    0 -6.5054019813e+02 -9.6475548332e+02 -1.5511728299e+03 2.9702849763e+03 2.2500000000e+03 0.0000e+00 0.0000e+00
      -11  1    4    4    0    0 +7.7093602343e-02 +1.3162355854e-01 -4.1968609180e-02 1.5820812164e-01 5.1100000000e-04 0.0000e+00 -1.0000e+00
  1000022  1    4    4    0    0 +6.5058768221e+02 +9.6470522394e+02 -3.3098787092e+02 2.5545984953e+03 2.2500000000e+03 0.0000e+00 0.0000e+00
<mgrwt>
<rscale>  0 0.51947035E+04</rscale>
<asrwt>0</asrwt>
<pdfrwt beam="1">  1        2 0.28022630E+00 0.51947035E+04</pdfrwt>
<pdfrwt beam="2">  1       -2 0.56980458E+00 0.51947035E+04</pdfrwt>
<totfact> 0.41626460E-03</totfact>
</mgrwt>
</event>
<event>
 8      1 +1.2359593e-08 4.76265200e+03 7.81860800e-03 7.86620100e-02
       -2 -1    0    0    0  501 -0.0000000000e+00 +0.0000000000e+00 +1.8180426035e+03 1.8180426035e+03 2.5500000000e-03 0.0000e+00 -1.0000e+00
        2 -1    0    0  501    0 +0.0000000000e+00 -0.0000000000e+00 -3.1191310944e+03 3.1191310944e+03 2.5500000000e-03 0.0000e+00 1.0000e+00
  1000011  2    1    2    0    0 +6.5961832462e+02 +1.7607570469e+02 -2.6038150177e+02 2.3657683626e+03 2.2501027601e+03 2.8153e+03 0.0000e+00
 -1000011  2    1    2    0    0 -6.5961832462e+02 -1.7607570469e+02 -1.0407069892e+03 2.5714053353e+03 2.2501011918e+03 9.7911e+01 0.0000e+00
       11  1    3    3    0    0 -7.4609097927e-02 +1.8590389377e-02 +8.5868649749e-03 7.7369990121e-02 5.1100000000e-04 0.0000e+00 1.0000e+00
  1000022  1    3    3    0    0 +6.5969293372e+02 +1.7605711430e+02 -2.6039008863e+02 2.3656909926e+03 2.2500000000e+03 0.0000e+00 0.0000e+00
      -11  1    4    4    0    0 +7.0269235628e-02 +2.1646718546e-02 -5.2141837882e-02 9.0140876199e-02 5.1100000000e-04 0.0000e+00 -1.0000e+00
  1000022  1    4    4    0    0 -6.5968859386e+02 -1.7609735141e+02 -1.0406548473e+03 2.5713151945e+03 2.2500000000e+03 0.0000e+00 0.0000e+00
<mgrwt>
<rscale>  0 0.47626519E+04</rscale>
<asrwt>0</asrwt>
<pdfrwt beam="1">  1        2 0.47986632E+00 0.47626519E+04</pdfrwt>
<pdfrwt beam="2">  1       -2 0.27969886E+00 0.47626519E+04</pdfrwt>
<totfact> 0.45863657E-02</totfact>
</mgrwt>
</event>
<event>
 8      1 +1.2359593e-08 4.61843300e+03 7.81860800e-03 7.89022500e-02
        2 -1    0    0  501    0 +0.0000000000e+00 +0.0000000000e+00 +2.8246677289e+03 2.8246677289e+03 2.5500000000e-03 0.0000e+00 1.0000e+00
       -2 -1    0    0    0  501 -0.0000000000e+00 -0.0000000000e+00 -1.8878255873e+03 1.8878255873e+03 2.5500000000e-03 0.0000e+00 -1.0000e+00
  1000011  2    1    2    0    0 -4.5609008713e+02 -2.2746259900e+02 +5.6926141630e+02 2.3762953468e+03 2.2501030229e+03 2.2670e+03 0.0000e+00
 -1000011  2    1    2    0    0 +4.5609008713e+02 +2.2746259900e+02 +3.6758072533e+02 2.3361979694e+03 2.2500995447e+03 3.8203e+02 0.0000e+00
       11  1    3    3    0    0 -1.2304600245e-01 +1.1874260276e-02 +3.2188883937e-02 1.2774075896e-01 5.1100000000e-04 0.0000e+00 1.0000e+00
  1000022  1    3    3    0    0 -4.5596704112e+02 -2.2747447326e+02 +5.6922922742e+02 2.3761676060e+03 2.2500000000e+03 0.0000e+00 0.0000e+00
      -11  1    4    4    0    0 +3.3989357661e-02 -8.8146686443e-02 +4.0189679765e-03 9.4559652044e-02 5.1100000000e-04 0.0000e+00 -1.0000e+00
  1000022  1    4    4    0    0 +4.5605609777e+02 +2.2755074569e+02 +3.6757670636e+02 2.3361034098e+03 2.2500000000e+03 0.0000e+00 0.0000e+00
<mgrwt>
<rscale>  0 0.46184326E+04</rscale>
<asrwt>0</asrwt>
<pdfrwt beam="1">  1        2 0.43456426E+00 0.46184326E+04</pdfrwt>
<pdfrwt beam="2">  1       -2 0.29043471E+00 0.46184326E+04</pdfrwt>
<totfact> 0.60960134E-02</totfact>
</mgrwt>
</event>
<event>
 8      1 +1.2359593e-08 6.24565900e+03 7.81860800e-03 7.66066800e-02
       -1 -1    0    0    0  501 -0.0000000000e+00 +0.0000000000e+00 +4.3267418227e+03 4.3267418227e+03 5.0400000000e-03 0.0000e+00 -1.0000e+00
        1 -1    0    0  501    0 +0.0000000000e+00 -0.0000000000e+00 -2.2539045949e+03 2.2539045949e+03 5.0400000000e-03 0.0000e+00 1.0000e+00
  1000011  2    1    2    0    0 -1.2535397666e+03 +6.3468432617e+02 +2.7724969841e+03 3.8371701339e+03 2.2500997688e+03 2.1236e+02 0.0000e+00
 -1000011  2    1    2    0    0 +1.2535397666e+03 -6.3468432617e+02 -6.9965975631e+02 2.7434762837e+03 2.2501004876e+03 8.1569e+02 0.0000e+00
       11  1    3    3    0    0 -7.5061281244e-02 -4.6967515088e-02 +2.2181101533e-02 9.1282010324e-02 5.1100000000e-04 0.0000e+00 1.0000e+00
  1000022  1    3    3    0    0 -1.2534647053e+03 +6.3473129369e+02 +2.7724748030e+03 3.8370788519e+03 2.2500000000e+03 0.0000e+00 0.0000e+00
      -11  1    4    4    0    0 +1.3641811325e-02 +4.1996389683e-02 -9.2533657359e-02 1.0253064924e-01 5.1100000000e-04 0.0000e+00 -1.0000e+00
  1000022  1    4    4    0    0 +1.2535261248e+03 -6.3472632256e+02 -6.9956722265e+02 2.7433737531e+03 2.2500000000e+03 0.0000e+00 0.0000e+00
<mgrwt>
<rscale>  0 0.62456587E+04</rscale>
<asrwt>0</asrwt>
<pdfrwt beam="1">  1        1 0.34675455E+00 0.62456587E+04</pdfrwt>
<pdfrwt beam="2">  1       -1 0.66565259E+00 0.62456587E+04</pdfrwt>
<totfact> 0.34956183E-04</totfact>
</mgrwt>
</event>
<event>
 8      1 +1.2359593e-08 4.61004200e+03 7.81860800e-03 7.89165000e-02
        2 -1    0    0  501    0 +0.0000000000e+00 +0.0000000000e+00 +4.1823656767e+03 4.1823656767e+03 2.5500000000e-03 0.0000e+00 1.0000e+00
       -2 -1    0    0    0  501 -0.0000000000e+00 -0.0000000000e+00 -1.2703628100e+03 1.2703628100e+03 2.5500000000e-03 0.0000e+00 -1.0000e+00
  1000011  2    1    2    0    0 +1.6031454370e+02 -4.7050132684e+02 +1.5219602365e+03 2.7615904104e+03 2.2500991938e+03 1.0137e+02 0.0000e+00
 -1000011  2    1    2    0    0 -1.6031454370e+02 +4.7050132684e+02 +1.3900426302e+03 2.6911380763e+03 2.2500963047e+03 8.0700e+01 0.0000e+00
       11  1    3    3    0    0 +7.9156467194e-02 +2.1626349273e-02 +6.0073575926e-04 8.2061360622e-02 5.1100000000e-04 0.0000e+00 1.0000e+00
  1000022  1    3    3    0    0 +1.6023538723e+02 -4.7052295319e+02 +1.5219596358e+03 2.7615083490e+03 2.2500000000e+03 0.0000e+00 0.0000e+00
      -11  1    4    4    0    0 +2.5841110949e-02 -4.7376097687e-02 -2.3168195827e-02 5.8730603505e-02 5.1100000000e-04 0.0000e+00 -1.0000e+00
  1000022  1    4    4    0    0 -1.6034038481e+02 +4.7054870294e+02 +1.3900657984e+03 2.6910793457e+03 2.2500000000e+03 0.0000e+00 0.0000e+00
<mgrwt>
<rscale>  0 0.46100420E+04</rscale>
<asrwt>0</asrwt>
<pdfrwt beam="1">  1        2 0.64344087E+00 0.46100420E+04</pdfrwt>
<pdfrwt beam="2">  1       -2 0.19544043E+00 0.46100420E+04</pdfrwt>
<totfact> 0.25638755E-02</totfact>
</mgrwt>
</event>
<event>
 8      1 +1.2359593e-08 4.61181300e+03 7.81860800e-03 7.89134900e-02
       -2 -1    0    0    0  501 -0.0000000000e+00 +0.0000000000e+00 +1.4571533018e+03 1.4571533018e+03 2.5500000000e-03 0.0000e+00 -1.0000e+00
        2 -1    0    0  501    0 +0.0000000000e+00 -0.0000000000e+00 -3.6490357910e+03 3.6490357910e+03 2.5500000000e-03 0.0000e+00 1.0000e+00
  1000011  2    1    2    0    0 +1.5453096284e+02 +4.7899708956e+02 -1.1296347109e+03 2.5675596788e+03 2.2501044629e+03 2.3380e+02 0.0000e+00
 -1000011  2    1    2    0    0 -1.5453096284e+02 -4.7899708956e+02 -1.0622477783e+03 2.5386294140e+03 2.2501002042e+03 3.5701e+01 0.0000e+00
       11  1    3    3    0    0 +7.4190210406e-02 +3.0076426190e-02 -1.4450287610e-01 1.6519721842e-01 5.1100000000e-04 0.0000e+00 1.0000e+00
  1000022  1    3    3    0    0 +1.5445677263e+02 +4.7896701313e+02 -1.1294902080e+03 2.5673944816e+03 2.2500000000e+03 0.0000e+00 0.0000e+00
      -11  1    4    4    0    0 +8.8201855740e-03 +2.4122344762e-02 +5.5005641512e-02 6.0708849632e-02 5.1100000000e-04 0.0000e+00 -1.0000e+00
  1000022  1    4    4    0    0 -1.5453978303e+02 -4.7902121190e+02 -1.0623027839e+03 2.5385687052e+03 2.2500000000e+03 0.0000e+00 0.0000e+00
<mgrwt>
<rscale>  0 0.46118129E+04</rscale>
<asrwt>0</asrwt>
<pdfrwt beam="1">  1        2 0.56139012E+00 0.46118129E+04</pdfrwt>
<pdfrwt beam="2">  1       -2 0.22417743E+00 0.46118129E+04</pdfrwt>
<totfact> 0.44319592E-02</totfact>
</mgrwt>
</event>
<event>
 8      1 +1.2359593e-08 4.91103400e+03 7.81860800e-03 7.84238000e-02
       -2 -1    0    0    0  501 -0.0000000000e+00 +0.0000000000e+00 +2.5406491732e+03 2.5406491732e+03 2.5500000000e-03 0.0000e+00 -1.0000e+00
        2 -1    0    0  501    0 +0.0000000000e+00 -0.0000000000e+00 -2.3732372594e+03 2.3732372594e+03 2.5500000000e-03 0.0000e+00 1.0000e+00
  1000011  2    1    2    0    0 -7.1933975165e+02 -1.1277406509e+02 +7.4474392853e+02 2.4794591559e+03 2.2500903356e+03 1.2562e+01 0.0000e+00
 -1000011  2    1    2    0    0 +7.1933975165e+02 +1.1277406509e+02 -5.7733201473e+02 2.4344272768e+03 2.2501013850e+03 7.6005e+02 0.0000e+00
       11  1    3    3    0    0 -1.1677544201e-01 +1.6802762808e-02 +1.1462337482e-02 1.1853473297e-01 5.1100000000e-04 0.0000e+00 1.0000e+00
  1000022  1    3    3    0    0 -7.1922297621e+02 -1.1279086785e+02 +7.4473246619e+02 2.4793406211e+03 2.2500000000e+03 0.0000e+00 0.0000e+00
      -11  1    4    4    0    0 +6.1259228333e-02 +6.0270328815e-02 +5.4385721604e-02 1.0170188245e-01 5.1100000000e-04 0.0000e+00 -1.0000e+00
  1000022  1    4    4    0    0 +7.1927849242e+02 +1.1271379476e+02 -5.7738640045e+02 2.4343255749e+03 2.2500000000e+03 0.0000e+00 0.0000e+00
<mgrwt>
<rscale>  0 0.49110338E+04</rscale>
<asrwt>0</asrwt>
<pdfrwt beam="1">  1        2 0.36511342E+00 0.49110338E+04</pdfrwt>
<pdfrwt beam="2">  1       -2 0.39086910E+00 0.49110338E+04</pdfrwt>
<totfact> 0.25717868E-02</totfact>
</mgrwt>
</event>
<event>
 8      1 +1.2359593e-08 4.96452800e+03 7.81860800e-03 7.83400200e-02
       -2 -1    0    0    0  501 -0.0000000000e+00 +0.0000000000e+00 +2.7414128812e+03 2.7414128812e+03 2.5500000000e-03 0.0000e+00 -1.0000e+00
        2 -1    0    0  501    0 +0.0000000000e+00 -0.0000000000e+00 -2.2476128086e+03 2.2476128086e+03 2.5500000000e-03 0.0000e+00 1.0000e+00
  1000011  2    1    2    0    0 +8.1971460787e+02 +4.0252814279e+02 +7.6394780528e+02 2.5456880107e+03 2.2501000543e+03 1.4782e+03 0.0000e+00
 -1000011  2    1    2    0    0 -8.1971460787e+02 -4.0252814279e+02 -2.7014773270e+02 2.4433376792e+03 2.2501018361e+03 2.1435e+00 0.0000e+00
       11  1    3    3    0    0 +7.0400500228e-02 +1.1310996165e-01 +1.8304704632e-02 1.3448203078e-01 5.1100000000e-04 0.0000e+00 1.0000e+00
  1000022  1    3    3    0    0 +8.1964420737e+02 +4.0241503282e+02 +7.6392950057e+02 2.5455535286e+03 2.2500000000e+03 0.0000e+00 0.0000e+00
      -11  1    4    4    0    0 -1.1186060371e-01 -2.1477200472e-02 +5.9078439525e-02 1.2831440923e-01 5.1100000000e-04 0.0000e+00 -1.0000e+00
  1000022  1    4    4    0    0 -8.1960274727e+02 -4.0250666559e+02 -2.7020681114e+02 2.4432093647e+03 2.2500000000e+03 0.0000e+00 0.0000e+00
<mgrwt>
<rscale>  0 0.49645281E+04</rscale>
<asrwt>0</asrwt>
<pdfrwt beam="1">  1        2 0.34578659E+00 0.49645281E+04</pdfrwt>
<pdfrwt beam="2">  1       -2 0.42175583E+00 0.49645281E+04</pdfrwt>
<totfact> 0.18943678E-02</totfact>
</mgrwt>
</event>
<event>
 8      1 +1.2359593e-08 4.67976000e+03 7.81860800e-03 7.87990000e-02
       -2 -1    0    0    0  501 -0.0000000000e+00 +0.0000000000e+00 +2.1975133901e+03 2.1975133901e+03 2.5500000000e-03 0.0000e+00 -1.0000e+00
        2 -1    0    0  501    0 +0.0000000000e+00 -0.0000000000e+00 -2.4914697740e+03 2.4914697740e+03 2.5500000000e-03 0.0000e+00 1.0000e+00
  1000011  2    1    2    0    0 -1.3961678117e+02 +6.2356096362e+02 -2.0852817328e+02 2.3483498394e+03 2.2500981863e+03 1.5744e+03 0.0000e+00
 -1000011  2    1    2    0    0 +1.3961678117e+02 -6.2356096362e+02 -8.5428210624e+01 2.3406333248e+03 2.2500989447e+03 1.9621e+02 0.0000e+00
       11  1    3    3    0    0 -8.7670957490e-02 +5.4452879516e-02 -5.9259873264e-02 1.1900968886e-01 5.1100000000e-04 0.0000e+00 1.0000e+00
  1000022  1    3    3    0    0 -1.3952911021e+02 +6.2350651074e+02 -2.0846891341e+02 2.3482308297e+03 2.2500000000e+03 0.0000e+00 0.0000e+00
      -11  1    4    4    0    0 -3.8097915836e-02 -4.8448764690e-02 +8.2209977085e-02 1.0274957565e-01 5.1100000000e-04 0.0000e+00 -1.0000e+00
  1000022  1    4    4    0    0 +1.3965487909e+02 -6.2351251486e+02 -8.5510420601e+01 2.3405305752e+03 2.2500000000e+03 0.0000e+00 0.0000e+00
<mgrwt>
<rscale>  0 0.46797599E+04</rscale>
<asrwt>0</asrwt>
<pdfrwt beam="1">  1        2 0.38330304E+00 0.46797599E+04</pdfrwt>
<pdfrwt beam="2">  1       -2 0.33807899E+00 0.46797599E+04</pdfrwt>
<totfact> 0.48607702E-02</totfact>
</mgrwt>
</event>
<event>
 8      1 +1.2359593e-08 4.77982400e+03 7.81860800e-03 7.86339900e-02
       -2 -1    0    0    0  501 -0.0000000000e+00 +0.0000000000e+00 +1.4066111681e+03 1.4066111681e+03 2.5500000000e-03 0.0000e+00 -1.0000e+00
        2 -1    0    0  501    0 +0.0000000000e+00 -0.0000000000e+00 -4.0605954721e+03 4.0605954721e+03 2.5500000000e-03 0.0000e+00 1.0000e+00
  1000011  2    1    2    0    0 +3.2469937132e+01 -1.6794557363e+02 -2.2272127938e+03 3.1706129918e+03 2.2501221971e+03 8.3317e+02 0.0000e+00
 -1000011  2    1    2    0    0 -3.2469937132e+01 +1.6794557363e+02 -4.2677151020e+02 2.2965936485e+03 2.2500996538e+03 2.7640e+03 0.0000e+00
       11  1    3    3    0    0 +2.2227203562e-02 +5.1916528021e-02 -2.6280467374e-01 2.6880463457e-01 5.1100000000e-04 0.0000e+00 1.0000e+00
  1000022  1    3    3    0    0 +3.2447709928e+01 -1.6799749016e+02 -2.2269499892e+03 3.1703441871e+03 2.2500000000e+03 0.0000e+00 0.0000e+00
      -11  1    4    4    0    0 +1.5715508727e-02 +6.8475684053e-02 +5.8650294460e-02 9.1520567550e-02 5.1100000000e-04 0.0000e+00 -1.0000e+00
  1000022  1    4    4    0    0 -3.2485652641e+01 +1.6787709795e+02 -4.2683016049e+02 2.2965021279e+03 2.2500000000e+03 0.0000e+00 0.0000e+00
<mgrwt>
<rscale>  0 0.47798238E+04</rscale>
<asrwt>0</asrwt>
<pdfrwt beam="1">  1        2 0.62470699E+00 0.47798238E+04</pdfrwt>
<pdfrwt beam="2">  1       -2 0.21640172E+00 0.47798238E+04</pdfrwt>
<totfact> 0.23440552E-02</totfact>
</mgrwt>
</event>
<event>
 8      1 +1.2359593e-08 5.26744100e+03 7.81860800e-03 7.78852600e-02
        2 -1    0    0  501    0 +0.0000000000e+00 +0.0000000000e+00 +3.9697582632e+03 3.9697582632e+03 2.5500000000e-03 0.0000e+00 1.0000e+00
       -2 -1    0    0    0  501 -0.0000000000e+00 -0.0000000000e+00 -1.7473315078e+03 1.7473315078e+03 2.5500000000e-03 0.0000e+00 -1.0000e+00
  1000011  2    1    2    0    0 +8.1828136097e+02 +7.2813390820e+02 +2.2030860266e+02 2.5122214141e+03 2.2501015931e+03 1.8633e+03 0.0000e+00
 -1000011  2    1    2    0    0 -8.1828136097e+02 -7.2813390820e+02 +2.0021181527e+03 3.2048683568e+03 2.2500979341e+03 2.6288e+01 0.0000e+00
       11  1    3    3    0    0 +4.7398203903e-02 +1.3798140865e-02 +1.0939908948e-01 1.2002249934e-01 5.1100000000e-04 0.0000e+00 1.0000e+00
  1000022  1    3    3    0    0 +8.1823396276e+02 +7.2812011006e+02 +2.2019920358e+02 2.5121013916e+03 2.2500000000e+03 0.0000e+00 0.0000e+00
      -11  1    4    4    0    0 -6.2373877783e-02 -1.3337206503e-01 +1.1499306298e-01 1.8682150191e-01 5.1100000000e-04 0.0000e+00 -1.0000e+00
  1000022  1    4    4    0    0 -8.1821898709e+02 -7.2800053613e+02 +2.0020031597e+03 3.2046815353e+03 2.2500000000e+03 0.0000e+00 0.0000e+00
<mgrwt>
<rscale>  0 0.52674410E+04</rscale>
<asrwt>0</asrwt>
<pdfrwt beam="1">  1        2 0.61073203E+00 0.52674410E+04</pdfrwt>
<pdfrwt beam="2">  1       -2 0.26882024E+00 0.52674410E+04</pdfrwt>
<totfact> 0.12651657E-02</totfact>
</mgrwt>
</event>
<event>
 8      1 +1.2359593e-08 5.50396100e+03 7.81860800e-03 7.75514400e-02
        2 -1    0    0  501    0 +0.0000000000e+00 +0.0000000000e+00 +3.0547994583e+03 3.0547994583e+03 2.5500000000e-03 0.0000e+00 1.0000e+00
       -2 -1    0    0    0  501 -0.0000000000e+00 -0.0000000000e+00 -2.4791794621e+03 2.4791794621e+03 2.5500000000e-03 0.0000e+00 -1.0000e+00
  1000011  2    1    2    0    0 +1.1419302592e+03 -6.6536974638e+02 -5.9086930955e+02 2.6755935515e+03 2.2501005968e+03 5.5028e+02 0.0000e+00
 -1000011  2    1    2    0    0 -1.1419302592e+03 +6.6536974638e+02 +1.1664893058e+03 2.8583853689e+03 2.2500995534e+03 3.4384e+02 0.0000e+00
       11  1    3    3    0    0 +5.7210612248e-02 +1.7474916354e-02 -1.1565373501e-01 1.3020934821e-01 5.1100000000e-04 0.0000e+00 1.0000e+00
  1000022  1    3    3    0    0 +1.1418730486e+03 -6.6538722130e+02 -5.9075365581e+02 2.6754633422e+03 2.2500000000e+03 0.0000e+00 0.0000e+00
      -11  1    4    4    0    0 -4.6831111393e-02 +7.0715491712e-02 +1.5521597950e-01 1.7687875648e-01 5.1100000000e-04 0.0000e+00 -1.0000e+00
  1000022  1    4    4    0    0 -1.1418834281e+03 +6.6529903089e+02 +1.1663340898e+03 2.8582084901e+03 2.2500000000e+03 0.0000e+00 0.0000e+00
<mgrwt>
<rscale>  0 0.55039608E+04</rscale>
<asrwt>0</asrwt>
<pdfrwt beam="1">  1        2 0.46996914E+00 0.55039608E+04</pdfrwt>
<pdfrwt beam="2">  1       -2 0.38141223E+00 0.55039608E+04</pdfrwt>
<totfact> 0.11028536E-02</totfact>
</mgrwt>
</event>
<event>
 8      1 +1.2359593e-08 5.23642700e+03 7.81860800e-03 7.79303600e-02
       -2 -1    0    0    0  501 -0.0000000000e+00 +0.0000000000e+00 +2.1399306481e+03 2.1399306481e+03 2.5500000000e-03 0.0000e+00 -1.0000e+00
        2 -1    0    0  501    0 +0.0000000000e+00 -0.0000000000e+00 -3.2033948172e+03 3.2033948172e+03 2.5500000000e-03 0.0000e+00 1.0000e+00
  1000011  2    1    2    0    0 -8.4492500095e+02 +1.0312256719e+03 -4.0766363190e+02 2.6469663977e+03 2.2500926271e+03 1.0863e+03 0.0000e+00
 -1000011  2    1    2    0    0 +8.4492500095e+02 -1.0312256719e+03 -6.5580053720e+02 2.6963590675e+03 2.2501007162e+03 7.6377e+02 0.0000e+00
       11  1    3    3    0    0 -4.8129468478e-02 -5.4218866256e-02 -2.5779694645e-02 7.6947936987e-02 5.1100000000e-04 0.0000e+00 1.0000e+00
  1000022  1    3    3    0    0 -8.4487687148e+02 +1.0312798907e+03 -4.0763785220e+02 2.6468894498e+03 2.2500000000e+03 0.0000e+00 0.0000e+00
      -11  1    4    4    0    0 +9.8040348222e-02 -1.4263183711e-01 -2.0382147936e-02 1.7427404736e-01 5.1100000000e-04 0.0000e+00 -1.0000e+00
  1000022  1    4    4    0    0 +8.4482696060e+02 -1.0310830400e+03 -6.5578015506e+02 2.6961847935e+03 2.2500000000e+03 0.0000e+00 0.0000e+00
<mgrwt>
<rscale>  0 0.52364273E+04</rscale>
<asrwt>0</asrwt>
<pdfrwt beam="1">  1        2 0.49282997E+00 0.52364273E+04</pdfrwt>
<pdfrwt beam="2">  1       -2 0.32922010E+00 0.52364273E+04</pdfrwt>
<totfact> 0.19332991E-02</totfact>
</mgrwt>
</event>
<event>
 8      1 +1.2359593e-08 5.17008900e+03 7.81860800e-03 7.80279200e-02
       -2 -1    0    0    0  501 -0.0000000000e+00 +0.0000000000e+00 +2.5757288448e+03 2.5757288448e+03 2.5500000000e-03 0.0000e+00 -1.0000e+00
        2 -1    0    0  501    0 +0.0000000000e+00 -0.0000000000e+00 -2.5943940361e+03 2.5943940361e+03 2.5500000000e-03 0.0000e+00 1.0000e+00
  1000011  2    1    2    0    0 +2.9940203399e+02 +1.2354891735e+03 +4.9773500524e+01 2.5848362730e+03 2.2500724612e+03 1.5407e+03 0.0000e+00
 -1000011  2    1    2    0    0 -2.9940203399e+02 -1.2354891735e+03 -6.8438691817e+01 2.5852866080e+03 2.2500995345e+03 1.5472e+02 0.0000e+00
       11  1    3    3    0    0 -5.8388891006e-02 +6.4567722895e-02 +6.5452635806e-03 8.7300370942e-02 5.1100000000e-04 0.0000e+00 1.0000e+00
  1000022  1    3    3    0    0 +2.9946042288e+02 +1.2354246058e+03 +4.9766955261e+01 2.5847489726e+03 2.2500000000e+03 0.0000e+00 0.0000e+00
      -11  1    4    4    0    0 -3.7997579768e-02 -1.0290548774e-01 +8.3711453096e-02 1.3798993970e-01 5.1100000000e-04 0.0000e+00 -1.0000e+00
  1000022  1    4    4    0    0 -2.9936403641e+02 -1.2353862681e+03 -6.8522403270e+01 2.5851486180e+03 2.2500000000e+03 0.0000e+00 0.0000e+00
<mgrwt>
<rscale>  0 0.51700892E+04</rscale>
<asrwt>0</asrwt>
<pdfrwt beam="1">  1        2 0.39913755E+00 0.51700892E+04</pdfrwt>
<pdfrwt beam="2">  1       -2 0.39626597E+00 0.51700892E+04</pdfrwt>
<totfact> 0.17305600E-02</totfact>
</mgrwt>
</event>
<event>
 8      1 +1.2359593e-08 4.51155800e+03 7.81860800e-03 7.90861600e-02
       -1 -1    0    0    0  501 -0.0000000000e+00 +0.0000000000e+00 +2.5386727730e+03 2.5386727730e+03 5.0400000000e-03 0.0000e+00 -1.0000e+00
        1 -1    0    0  501    0 +0.0000000000e+00 -0.0000000000e+00 -2.0044091871e+03 2.0044091871e+03 5.0400000000e-03 0.0000e+00 1.0000e+00
  1000011  2    1    2    0    0 +1.5583678333e+02 -3.6908028425e+01 +2.6892074948e+02 2.2717637348e+03 2.2500988404e+03 7.7761e+01 0.0000e+00
 -1000011  2    1    2    0    0 -1.5583678333e+02 +3.6908028425e+01 +2.6534283641e+02 2.2713182253e+03 2.2500738553e+03 1.1156e+03 0.0000e+00
       11  1    3    3    0    0 -8.4705205238e-02 +6.5084174420e-04 -2.6929600365e-02 8.8886778274e-02 5.1100000000e-04 0.0000e+00 1.0000e+00
  1000022  1    3    3    0    0 +1.5592148854e+02 -3.6908679267e+01 +2.6894767908e+02 2.2716748481e+03 2.2500000000e+03 0.0000e+00 0.0000e+00
      -11  1    4    4    0    0 -7.7382452801e-02 +7.9074952334e-03 -5.3779697798e-03 7.7972789905e-02 5.1100000000e-04 0.0000e+00 -1.0000e+00
  1000022  1    4    4    0    0 -1.5575940088e+02 +3.6900120930e+01 +2.6534821438e+02 2.2712402525e+03 2.2500000000e+03 0.0000e+00 0.0000e+00
<mgrwt>
<rscale>  0 0.45115581E+04</rscale>
<asrwt>0</asrwt>
<pdfrwt beam="1">  1        1 0.30837065E+00 0.45115581E+04</pdfrwt>
<pdfrwt beam="2">  1       -1 0.39056504E+00 0.45115581E+04</pdfrwt>
<totfact> 0.18429399E-02</totfact>
</mgrwt>
</event>
<event>
 8      1 +1.2359593e-08 5.05446800e+03 7.81860800e-03 7.82016000e-02
       -1 -1    0    0    0  501 -0.0000000000e+00 +0.0000000000e+00 +4.4716821516e+03 4.4716821516e+03 5.0400000000e-03 0.0000e+00 1.0000e+00
        1 -1    0    0  501    0 +0.0000000000e+00 -0.0000000000e+00 -1.4283015602e+03 1.4283015602e+03 5.0400000000e-03 0.0000e+00 -1.0000e+00
  1000011  2    1    2    0    0 -4.0981230021e+02 +9.8288543411e+02 +2.0304001067e+03 3.2124039232e+03 2.2501121026e+03 7.5251e+02 0.0000e+00
 -1000011  2    1    2    0    0 +4.0981230021e+02 -9.8288543411e+02 +1.0129804847e+03 2.6875797887e+03 2.2500990557e+03 2.8796e+00 0.0000e+00
       11  1    3    3    0    0 -6.4098253739e-03 +6.0063011398e-02 +2.4567864468e-01 2.5299586645e-01 5.1100000000e-04 0.0000e+00 1.0000e+00
  1000022  1    3    3    0    0 -4.0980589038e+02 +9.8282537110e+02 +2.0301544281e+03 3.2121509273e+03 2.2500000000e+03 0.0000e+00 0.0000e+00
      -11  1    4    4    0    0 -4.2164570283e-02 +2.7789569140e-02 -2.5683311773e-02 5.6656902245e-02 5.1100000000e-04 0.0000e+00 -1.0000e+00
  1000022  1    4    4    0    0 +4.0985446478e+02 -9.8291322368e+02 +1.0130061680e+03 2.6875231318e+03 2.2500000000e+03 0.0000e+00 0.0000e+00
<mgrwt>
<rscale>  0 0.50544676E+04</rscale>
<asrwt>0</asrwt>
<pdfrwt beam="1">  1        1 0.21973870E+00 0.50544676E+04</pdfrwt>
<pdfrwt beam="2">  1       -1 0.68795110E+00 0.50544676E+04</pdfrwt>
<totfact> 0.11728667E-03</totfact>
</mgrwt>
</event>
<event>
 8      1 +1.2359593e-08 4.62979500e+03 7.81860800e-03 7.88829900e-02
       -2 -1    0    0    0  501 -0.0000000000e+00 +0.0000000000e+00 +3.1361193910e+03 3.1361193910e+03 2.5500000000e-03 0.0000e+00 1.0000e+00
        2 -1    0    0  501    0 +0.0000000000e+00 -0.0000000000e+00 -1.7087198597e+03 1.7087198597e+03 2.5500000000e-03 0.0000e+00 -1.0000e+00
  1000011  2    1    2    0    0 +2.1770105999e+02 +4.9805402399e+02 +6.9359568455e+02 2.4165005051e+03 2.2500995878e+03 9.0556e+02 0.0000e+00
 -1000011  2    1    2    0    0 -2.1770105999e+02 -4.9805402399e+02 +7.3380384680e+02 2.4283387456e+03 2.2500909794e+03 1.7151e+03 0.0000e+00
       11  1    3    3    0    0 -5.6994816100e-02 +9.6693670523e-02 +3.4517149599e-02 1.1742984957e-01 5.1100000000e-04 0.0000e+00 1.0000e+00
  1000022  1    3    3    0    0 +2.1775805480e+02 +4.9795733032e+02 +6.9356116740e+02 2.4163830752e+03 2.2500000000e+03 0.0000e+00 0.0000e+00
      -11  1    4    4    0    0 -7.7945179967e-03 -1.4091554878e-02 -6.6004930348e-02 6.7942905206e-02 5.1100000000e-04 0.0000e+00 -1.0000e+00
  1000022  1    4    4    0    0 -2.1769326547e+02 -4.9803993244e+02 +7.3386985173e+02 2.4282708027e+03 2.2500000000e+03 0.0000e+00 0.0000e+00
<mgrwt>
<rscale>  0 0.46297946E+04</rscale>
<asrwt>0</asrwt>
<pdfrwt beam="1">  1        2 0.26287998E+00 0.46297946E+04</pdfrwt>
<pdfrwt beam="2">  1       -2 0.48247990E+00 0.46297946E+04</pdfrwt>
<totfact> 0.15533139E-02</totfact>
</mgrwt>
</event>
<event>
 8      1 +1.2359593e-08 5.47925900e+03 7.81860800e-03 7.75855000e-02
        2 -1    0    0  501    0 +0.0000000000e+00 +0.0000000000e+00 +3.9913120071e+03 3.9913120071e+03 2.5500000000e-03 0.0000e+00 1.0000e+00
       -2 -1    0    0    0  501 -0.0000000000e+00 -0.0000000000e+00 -1.8804765232e+03 1.8804765232e+03 2.5500000000e-03 0.0000e+00 -1.0000e+00
  1000011  2    1    2    0    0 -1.3797850887e+03 +3.6172158197e+02 +3.7093940848e+02 2.6898318836e+03 2.2501000252e+03 4.1786e+02 0.0000e+00
 -1000011  2    1    2    0    0 +1.3797850887e+03 -3.6172158197e+02 +1.7398960754e+03 3.1819566467e+03 2.2501022987e+03 6.6984e+02 0.0000e+00
       11  1    3    3    0    0 -4.4679490841e-02 +3.5901173240e-02 +1.1339158222e-01 1.2705535428e-01 5.1100000000e-04 0.0000e+00 1.0000e+00
  1000022  1    3    3    0    0 -1.3797404092e+03 +3.6168568080e+02 +3.7082601690e+02 2.6897048283e+03 2.2500000000e+03 0.0000e+00 0.0000e+00
      -11  1    4    4    0    0 +8.7187959838e-02 -7.5645368543e-02 -5.7950588161e-03 1.1557597261e-01 5.1100000000e-04 0.0000e+00 -1.0000e+00
  1000022  1    4    4    0    0 +1.3796979007e+03 -3.6164593660e+02 +1.7399018705e+03 3.1818410708e+03 2.2500000000e+03 0.0000e+00 0.0000e+00
<mgrwt>
<rscale>  0 0.54792585E+04</rscale>
<asrwt>0</asrwt>
<pdfrwt beam="1">  1        2 0.61404799E+00 0.54792585E+04</pdfrwt>
<pdfrwt beam="2">  1       -2 0.28930409E+00 0.54792585E+04</pdfrwt>
<totfact> 0.89605838E-03</totfact>
</mgrwt>
</event>
<event>
 8      1 +1.2359593e-08 5.09349400e+03 7.81860800e-03 7.81424500e-02
       -2 -1    0    0    0  501 -0.0000000000e+00 +0.0000000000e+00 +1.6270310505e+03 1.6270310505e+03 2.5500000000e-03 0.0000e+00 -1.0000e+00
        2 -1    0    0  501    0 +0.0000000000e+00 -0.0000000000e+00 -3.9863534340e+03 3.9863534340e+03 2.5500000000e-03 0.0000e+00 1.0000e+00
  1000011  2    1    2    0    0 -1.1683308076e+03 +8.9766422569e+01 -9.3339850344e+02 2.7031842939e+03 2.2500928145e+03 1.6439e+03 0.0000e+00
 -1000011  2    1    2    0    0 +1.1683308076e+03 -8.9766422569e+01 -1.4259238801e+03 2.9102001906e+03 2.2501002980e+03 3.9808e+02 0.0000e+00
       11  1    3    3    0    0 -3.5442720060e-02 +8.7590594737e-02 -7.7622713635e-02 1.2228591618e-01 5.1100000000e-04 0.0000e+00 1.0000e+00
  1000022  1    3    3    0    0 -1.1682953649e+03 +8.9678831974e+01 -9.3332088073e+02 2.7030620080e+03 2.2500000000e+03 0.0000e+00 0.0000e+00
      -11  1    4    4    0    0 +5.0812266630e-02 -2.3244520584e-02 +4.9290147868e-02 7.4511568324e-02 5.1100000000e-04 0.0000e+00 -1.0000e+00
  1000022  1    4    4    0    0 +1.1682799953e+03 -8.9743178048e+01 -1.4259731702e+03 2.9101256790e+03 2.2500000000e+03 0.0000e+00 0.0000e+00
<mgrwt>
<rscale>  0 0.50934942E+04</rscale>
<asrwt>0</asrwt>
<pdfrwt beam="1">  1        2 0.61328514E+00 0.50934942E+04</pdfrwt>
<pdfrwt beam="2">  1       -2 0.25031247E+00 0.50934942E+04</pdfrwt>
<totfact> 0.16149524E-02</totfact>
</mgrwt>
</event>
<event>
 8      1 +1.2359593e-08 6.23445000e+03 7.81860800e-03 7.66199400e-02
        2 -1    0    0  501    0 +0.0000000000e+00 +0.0000000000e+00 +4.5166636440e+03 4.5166636440e+03 2.5500000000e-03 0.0000e+00 1.0000e+00
       -2 -1    0    0    0  501 -0.0000000000e+00 -0.0000000000e+00 -2.1513870173e+03 2.1513870173e+03 2.5500000000e-03 0.0000e+00 -1.0000e+00
  1000011  2    1    2    0    0 +1.9442646026e+03 -3.3489313700e+02 +2.1161672617e+03 3.6651632511e+03 2.2500976689e+03 2.9637e+03 0.0000e+00
 -1000011  2    1    2    0    0 -1.9442646026e+03 +3.3489313700e+02 +2.4910936500e+02 3.0028874102e+03 2.2501020121e+03 2.9557e+02 0.0000e+00
       11  1    3    3    0    0 +1.9262897036e-01 -2.0906615464e-02 +7.6945926233e-02 2.0848007810e-01 5.1100000000e-04 0.0000e+00 1.0000e+00
  1000022  1    3    3    0    0 +1.9440719736e+03 -3.3487223039e+02 +2.1160903157e+03 3.6649547710e+03 2.2500000000e+03 0.0000e+00 0.0000e+00
      -11  1    4    4    0    0 -1.5805388183e-02 +9.2109793859e-02 +3.5187453162e-02 9.9862115230e-02 5.1100000000e-04 0.0000e+00 -1.0000e+00
  1000022  1    4    4    0    0 -1.9442487972e+03 +3.3480102721e+02 +2.4907417755e+02 3.0027875481e+03 2.2500000000e+03 0.0000e+00 0.0000e+00
<mgrwt>
<rscale>  0 0.62344499E+04</rscale>
<asrwt>0</asrwt>
<pdfrwt beam="1">  1        2 0.69487133E+00 0.62344499E+04</pdfrwt>
<pdfrwt beam="2">  1       -2 0.33098262E+00 0.62344499E+04</pdfrwt>
<totfact> 0.15839189E-03</totfact>
</mgrwt>
</event>
<event>
 8      1 +1.2359593e-08 4.70287500e+03 7.81860800e-03 7.87605100e-02
        2 -1    0    0  501    0 +0.0000000000e+00 +0.0000000000e+00 +2.7819620757e+03 2.7819620757e+03 2.5500000000e-03 0.0000e+00 1.0000e+00
       -2 -1    0    0    0  501 -0.0000000000e+00 -0.0000000000e+00 -1.9875394475e+03 1.9875394475e+03 2.5500000000e-03 0.0000e+00 -1.0000e+00
  1000011  2    1    2    0    0 -1.4532705851e+02 -4.9797627939e+02 +8.4758632852e+02 2.4597656981e+03 2.2500987481e+03 4.0931e+02 0.0000e+00
 -1000011  2    1    2    0    0 +1.4532705851e+02 +4.9797627939e+02 -5.3163700288e+01 2.3097358252e+03 2.2501006365e+03 3.4718e+03 0.0000e+00
       11  1    3    3    0    0 -3.9125579791e-02 +1.5342045724e-02 +1.2620998001e-01 1.3302409123e-01 5.1100000000e-04 0.0000e+00 1.0000e+00
  1000022  1    3    3    0    0 -1.4528793293e+02 -4.9799162143e+02 +8.4746011854e+02 2.4596326740e+03 2.2500000000e+03 0.0000e+00 0.0000e+00
      -11  1    4    4    0    0 -2.9913507196e-02 +3.7038342364e-03 -9.4430611790e-02 9.9125866168e-02 5.1100000000e-04 0.0000e+00 -1.0000e+00
  1000022  1    4    4    0    0 +1.4535697202e+02 +4.9797257555e+02 -5.3069269676e+01 2.3096366993e+03 2.2500000000e+03 0.0000e+00 0.0000e+00
<mgrwt>
<rscale>  0 0.47028754E+04</rscale>
<asrwt>0</asrwt>
<pdfrwt beam="1">  1        2 0.42799416E+00 0.47028754E+04</pdfrwt>
<pdfrwt beam="2">  1       -2 0.30577530E+00 0.47028754E+04</pdfrwt>
<totfact> 0.51769901E-02</totfact>
</mgrwt>
</event>
<event>
 8      1 +1.2359593e-08 4.56356100e+03 7.81860800e-03 7.89960300e-02
        2 -1    0    0  501    0 +0.0000000000e+00 +0.0000000000e+00 +1.7720182335e+03 1.7720182335e+03 2.5500000000e-03 0.0000e+00 1.0000e+00
       -2 -1    0    0    0  501 -0.0000000000e+00 -0.0000000000e+00 -2.9381878062e+03 2.9381878062e+03 2.5500000000e-03 0.0000e+00 -1.0000e+00
  1000011  2    1    2    0    0 -1.3899159466e+02 +3.0143559831e+02 -7.7155585547e+02 2.4017726845e+03 2.2501181095e+03 1.7446e+03 0.0000e+00
 -1000011  2    1    2    0    0 +1.3899159466e+02 -3.0143559831e+02 -3.9461371729e+02 2.3084333552e+03 2.2501027723e+03 7.0897e+02 0.0000e+00
       11  1    3    3    0    0 -1.2291543041e-01 +3.1476634214e-02 -2.1973842087e-02 1.2877147165e-01 5.1100000000e-04 0.0000e+00 1.0000e+00
  1000022  1    3    3    0    0 -1.3886867923e+02 +3.0140412167e+02 -7.7153388162e+02 2.4016439131e+03 2.2500000000e+03 0.0000e+00 0.0000e+00
      -11  1    4    4    0    0 +8.9484235739e-02 -1.6942461102e-02 -8.0463352112e-02 1.2152813299e-01 5.1100000000e-04 0.0000e+00 -1.0000e+00
  1000022  1    4    4    0    0 +1.3890211043e+02 -3.0141865585e+02 -3.9453325394e+02 2.3083118270e+03 2.2500000000e+03 0.0000e+00 0.0000e+00
<mgrwt>
<rscale>  0 0.45635611E+04</rscale>
<asrwt>0</asrwt>
<pdfrwt beam="1">  1        2 0.27261819E+00 0.45635611E+04</pdfrwt>
<pdfrwt beam="2">  1       -2 0.45202889E+00 0.45635611E+04</pdfrwt>
<totfact> 0.22723853E-02</totfact>
</mgrwt>
</event>
<event>
 8      1 +1.2359593e-08 4.65753000e+03 7.81860800e-03 7.88362400e-02
        2 -1    0    0  501    0 +0.0000000000e+00 +0.0000000000e+00 +3.3262362066e+03 3.3262362066e+03 2.5500000000e-03 0.0000e+00 1.0000e+00
       -2 -1    0    0    0  501 -0.0000000000e+00 -0.0000000000e+00 -1.6304149674e+03 1.6304149674e+03 2.5500000000e-03 0.0000e+00 -1.0000e+00
  1000011  2    1    2    0    0 -5.4055921515e+02 -2.6002120145e+02 +8.2710745463e+02 2.4712087370e+03 2.2501001288e+03 1.2981e+03 0.0000e+00
 -1000011  2    1    2    0    0 +5.4055921515e+02 +2.6002120145e+02 +8.6871378456e+02 2.4854424371e+03 2.2500989263e+03 8.6478e+02 0.0000e+00
       11  1    3    3    0    0 -8.6060375051e-02 -7.2962940516e-02 +1.0113225539e-01 1.5151888572e-01 5.1100000000e-04 0.0000e+00 1.0000e+00
  1000022  1    3    3    0    0 -5.4047315478e+02 -2.5994823851e+02 +8.2700632238e+02 2.4710572181e+03 2.2500000000e+03 0.0000e+00 0.0000e+00
      -11  1    4    4    0    0 +6.3347117249e-02 -6.7027038099e-02 -1.0130956692e-02 9.2781345506e-02 5.1100000000e-04 0.0000e+00 -1.0000e+00
  1000022  1    4    4    0    0 +5.4049586804e+02 +2.6008822849e+02 +8.6872391552e+02 2.4853496558e+03 2.2500000000e+03 0.0000e+00 0.0000e+00
<mgrwt>
<rscale>  0 0.46575295E+04</rscale>
<asrwt>0</asrwt>
<pdfrwt beam="1">  1        2 0.51172864E+00 0.46575295E+04</pdfrwt>
<pdfrwt beam="2">  1       -2 0.25083307E+00 0.46575295E+04</pdfrwt>
<totfact> 0.50755317E-02</totfact>
</mgrwt>
</event>
<event>
 8      1 +1.2359593e-08 4.72766200e+03 7.81860800e-03 7.87194900e-02
       -2 -1    0    0    0  501 -0.0000000000e+00 +0.0000000000e+00 +2.5779703047e+03 2.5779703047e+03 2.5500000000e-03 0.0000e+00 -1.0000e+00
        2 -1    0    0  501    0 +0.0000000000e+00 -0.0000000000e+00 -2.1674790133e+03 2.1674790133e+03 2.5500000000e-03 0.0000e+00 1.0000e+00
  1000011  2    1    2    0    0 -6.3046798898e+02 -2.9391705693e+02 +4.0816346304e+02 2.3902770887e+03 2.2501000037e+03 1.1240e+02 0.0000e+00
 -1000011  2    1    2    0    0 +6.3046798898e+02 +2.9391705693e+02 +2.3278283129e+00 2.3551722293e+03 2.2501008176e+03 9.8544e+01 0.0000e+00
       11  1    3    3    0    0 +6.8891984679e-02 -4.1051851453e-02 +3.2649831859e-02 8.6588870178e-02 5.1100000000e-04 0.0000e+00 1.0000e+00
  1000022  1    3    3    0    0 -6.3053688097e+02 -2.9387600508e+02 +4.0813081321e+02 2.3901904998e+03 2.2500000000e+03 0.0000e+00 0.0000e+00
      -11  1    4    4    0    0 +9.0662898113e-02 +7.3586532577e-02 -5.6489194810e-02 1.2971518281e-01 5.1100000000e-04 0.0000e+00 -1.0000e+00
  1000022  1    4    4    0    0 +6.3037732609e+02 +2.9384347040e+02 +2.3843175077e+00 2.3550425141e+03 2.2500000000e+03 0.0000e+00 0.0000e+00
<mgrwt>
<rscale>  0 0.47276618E+04</rscale>
<asrwt>0</asrwt>
<pdfrwt beam="1">  1        2 0.33345831E+00 0.47276618E+04</pdfrwt>
<pdfrwt beam="2">  1       -2 0.39661081E+00 0.47276618E+04</pdfrwt>
<totfact> 0.31306778E-02</totfact>
</mgrwt>
</event>
<event>
 8      1 +1.2359593e-08 4.63421600e+03 7.81860800e-03 7.88755200e-02
        2 -1    0    0  501    0 +0.0000000000e+00 +0.0000000000e+00 +3.5616511732e+03 3.5616511732e+03 2.5500000000e-03 0.0000e+00 1.0000e+00
       -2 -1    0    0    0  501 -0.0000000000e+00 -0.0000000000e+00 -1.5074436629e+03 1.5074436629e+03 2.5500000000e-03 0.0000e+00 -1.0000e+00
  1000011  2    1    2    0    0 -5.4067132002e+02 -1.1060128313e+02 +1.0690950343e+03 2.5515617540e+03 2.2500989027e+03 8.2269e+02 0.0000e+00
 -1000011  2    1    2    0    0 +5.4067132002e+02 +1.1060128313e+02 +9.8511247589e+02 2.5175330821e+03 2.2501040219e+03 1.6167e+03 0.0000e+00
       11  1    3    3    0    0 -4.0002844468e-02 +1.2058810301e-02 +1.5423249282e-01 1.5979225539e-01 5.1100000000e-04 0.0000e+00 1.0000e+00
  1000022  1    3    3    0    0 -5.4063131717e+02 -1.1061334194e+02 +1.0689408019e+03 2.5514019617e+03 2.2500000000e+03 0.0000e+00 0.0000e+00
      -11  1    4    4    0    0 -9.2939333350e-03 +1.0328688910e-01 +3.9655624933e-02 1.1102877141e-01 5.1100000000e-04 0.0000e+00 -1.0000e+00
  1000022  1    4    4    0    0 +5.4068061395e+02 +1.1049799624e+02 +9.8507282026e+02 2.5174220534e+03 2.2500000000e+03 0.0000e+00 0.0000e+00
<mgrwt>
<rscale>  0 0.46342156E+04</rscale>
<asrwt>0</asrwt>
<pdfrwt beam="1">  1        2 0.54794633E+00 0.46342156E+04</pdfrwt>
<pdfrwt beam="2">  1       -2 0.23191441E+00 0.46342156E+04</pdfrwt>
<totfact> 0.45748301E-02</totfact>
</mgrwt>
</event>
<event>
 8      1 +1.2359593e-08 4.67532200e+03 7.81860800e-03 7.88064200e-02
        2 -1    0    0  501    0 +0.0000000000e+00 +0.0000000000e+00 +2.2437487088e+03 2.2437487088e+03 2.5500000000e-03 0.0000e+00 1.0000e+00
       -2 -1    0    0    0  501 -0.0000000000e+00 -0.0000000000e+00 -2.4355037647e+03 2.4355037647e+03 2.5500000000e-03 0.0000e+00 -1.0000e+00
  1000011  2    1    2    0    0 +3.6028672495e+02 +4.8506550238e+02 -2.8722046062e+02 2.3474695142e+03 2.2501160996e+03 2.5904e+03 0.0000e+00
 -1000011  2    1    2    0    0 -3.6028672495e+02 -4.8506550238e+02 +9.5465404755e+01 2.3317829593e+03 2.2501117883e+03 8.7230e+02 0.0000e+00
       11  1    3    3    0    0 +3.3254003787e-02 -9.1128764809e-02 -2.8085432558e-02 1.0099174474e-01 5.1100000000e-04 0.0000e+00 1.0000e+00
  1000022  1    3    3    0    0 +3.6025347094e+02 +4.8515663114e+02 -2.8719237519e+02 2.3473685225e+03 2.2500000000e+03 0.0000e+00 0.0000e+00
      -11  1    4    4    0    0 +3.9974783240e-02 +7.4166539852e-02 -1.5326982160e-02 8.5637818182e-02 5.1100000000e-04 0.0000e+00 -1.0000e+00
  1000022  1    4    4    0    0 -3.6032669973e+02 -4.8513966892e+02 +9.5480731737e+01 2.3316973215e+03 2.2500000000e+03 0.0000e+00 0.0000e+00
<mgrwt>
<rscale>  0 0.46753218E+04</rscale>
<asrwt>0</asrwt>
<pdfrwt beam="1">  1        2 0.34519211E+00 0.46753218E+04</pdfrwt>
<pdfrwt beam="2">  1       -2 0.37469289E+00 0.46753218E+04</pdfrwt>
<totfact> 0.39484555E-02</totfact>
</mgrwt>
</event>
<event>
 8      1 +1.2359593e-08 4.59184400e+03 7.81860800e-03 7.89475200e-02
       -2 -1    0    0    0  501 -0.0000000000e+00 +0.0000000000e+00 +1.9218576030e+03 1.9218576030e+03 2.5500000000e-03 0.0000e+00 -1.0000e+00
        2 -1    0    0  501    0 +0.0000000000e+00 -0.0000000000e+00 -2.7427935740e+03 2.7427935740e+03 2.5500000000e-03 0.0000e+00 1.0000e+00
  1000011  2    1    2    0    0 +3.3157981500e+02 +3.0797896224e+02 -3.5031324862e+02 2.3217387723e+03 2.2501011844e+03 4.0213e+02 0.0000e+00
 -1000011  2    1    2    0    0 -3.3157981500e+02 -3.0797896224e+02 -4.7062272231e+02 2.3429124046e+03 2.2501014586e+03 3.7609e+02 0.0000e+00
       11  1    3    3    0    0 +2.0156536925e-02 +6.8544389098e-02 -1.0332366303e-01 1.2562109428e-01 5.1100000000e-04 0.0000e+00 1.0000e+00
  1000022  1    3    3    0    0 +3.3155965846e+02 +3.0791041785e+02 -3.5020992496e+02 2.3216131513e+03 2.2500000000e+03 0.0000e+00 0.0000e+00
      -11  1    4    4    0    0 +2.4624406606e-02 +7.1687328225e-02 -5.9780614633e-02 9.6537128133e-02 5.1100000000e-04 0.0000e+00 -1.0000e+00
  1000022  1    4    4    0    0 -3.3160443940e+02 -3.0805064957e+02 -4.7056294170e+02 2.3428158675e+03 2.2500000000e+03 0.0000e+00 0.0000e+00
<mgrwt>
<rscale>  0 0.45918444E+04</rscale>
<asrwt>0</asrwt>
<pdfrwt beam="1">  1        2 0.42196824E+00 0.45918444E+04</pdfrwt>
<pdfrwt beam="2">  1       -2 0.29567040E+00 0.45918444E+04</pdfrwt>
<totfact> 0.63601581E-02</totfact>
</mgrwt>
</event>
<event>
 8      1 +1.2359593e-08 4.92863000e+03 7.81860800e-03 7.83961200e-02
       -2 -1    0    0    0  501 -0.0000000000e+00 +0.0000000000e+00 +1.9262459687e+03 1.9262459687e+03 2.5500000000e-03 0.0000e+00 -1.0000e+00
        2 -1    0    0  501    0 +0.0000000000e+00 -0.0000000000e+00 -3.1526857097e+03 3.1526857097e+03 2.5500000000e-03 0.0000e+00 1.0000e+00
  1000011  2    1    2    0    0 +3.4267127871e+02 -5.9051047530e+02 -1.3731244019e+03 2.7229676037e+03 2.2501012690e+03 6.9536e+02 0.0000e+00
 -1000011  2    1    2    0    0 -3.4267127871e+02 +5.9051047530e+02 +1.4668466100e+02 2.3559640747e+03 2.2500942435e+03 1.3301e+03 0.0000e+00
       11  1    3    3    0    0 +4.2885461740e-02 -1.2165691586e-01 -1.1881420756e-01 1.7537572340e-01 5.1100000000e-04 0.0000e+00 1.0000e+00
  1000022  1    3    3    0    0 +3.4262839325e+02 -5.9038881838e+02 -1.3730055877e+03 2.7227922280e+03 2.2500000000e+03 0.0000e+00 0.0000e+00
      -11  1    4    4    0    0 +4.5375301411e-02 -4.3676202898e-02 -3.1652710835e-02 7.0488890551e-02 5.1100000000e-04 0.0000e+00 -1.0000e+00
  1000022  1    4    4    0    0 -3.4271665402e+02 +5.9055415150e+02 +1.4671631371e+02 2.3558935858e+03 2.2500000000e+03 0.0000e+00 0.0000e+00
<mgrwt>
<rscale>  0 0.49286299E+04</rscale>
<asrwt>0</asrwt>
<pdfrwt beam="1">  1        2 0.48502857E+00 0.49286299E+04</pdfrwt>
<pdfrwt beam="2">  1       -2 0.29634553E+00 0.49286299E+04</pdfrwt>
<totfact> 0.34073385E-02</totfact>
</mgrwt>
</event>
<event>
 8      1 +1.2359593e-08 5.45615100e+03 7.81860800e-03 7.76175200e-02
       -2 -1    0    0    0  501 -0.0000000000e+00 +0.0000000000e+00 +2.6995882840e+03 2.6995882840e+03 2.5500000000e-03 0.0000e+00 -1.0000e+00
        2 -1    0    0  501    0 +0.0000000000e+00 -0.0000000000e+00 -2.7568632707e+03 2.7568632707e+03 2.5500000000e-03 0.0000e+00 1.0000e+00
  1000011  2    1    2    0    0 -2.0219020353e+02 +3.2781819612e+02 -1.5224067190e+03 2.7439059557e+03 2.2501004484e+03 2.6596e+02 0.0000e+00
 -1000011  2    1    2    0    0 +2.0219020353e+02 -3.2781819612e+02 +1.4651317323e+03 2.7125455989e+03 2.2500993278e+03 7.2566e+02 0.0000e+00
       11  1    3    3    0    0 -7.4506325905e-02 +1.3577244846e-02 -1.6352202813e-01 1.8020890262e-01 5.1100000000e-04 0.0000e+00 1.0000e+00
  1000022  1    3    3    0    0 -2.0211569721e+02 +3.2780461887e+02 -1.5222431970e+03 2.7437257468e+03 2.2500000000e+03 0.0000e+00 0.0000e+00
      -11  1    4    4    0    0 -9.6356534167e-03 -1.1020516652e-01 +9.9072817627e-02 1.4850491020e-01 5.1100000000e-04 0.0000e+00 -1.0000e+00
  1000022  1    4    4    0    0 +2.0219983919e+02 -3.2770799095e+02 +1.4650326595e+03 2.7123970940e+03 2.2500000000e+03 0.0000e+00 0.0000e+00
<mgrwt>
<rscale>  0 0.54561509E+04</rscale>
<asrwt>0</asrwt>
<pdfrwt beam="1">  1        2 0.42413281E+00 0.54561509E+04</pdfrwt>
<pdfrwt beam="2">  1       -2 0.41532127E+00 0.54561509E+04</pdfrwt>
<totfact> 0.10165565E-02</totfact>
</mgrwt>
</event>
<event>
 8      1 +1.2359593e-08 5.13462400e+03 7.81860800e-03 7.80806900e-02
        2 -1    0    0  501    0 +0.0000000000e+00 +0.0000000000e+00 +3.0188008457e+03 3.0188008457e+03 2.5500000000e-03 0.0000e+00 1.0000e+00
       -2 -1    0    0    0  501 -0.0000000000e+00 -0.0000000000e+00 -2.1833471610e+03 2.1833471610e+03 2.5500000000e-03 0.0000e+00 -1.0000e+00
  1000011  2    1    2    0    0 -1.1211557616e+03 -2.7021196948e+02 -3.3224046414e+01 2.5286567422e+03 2.2501102934e+03 6.2318e+02 0.0000e+00
 -1000011  2    1    2    0    0 +1.1211557616e+03 +2.7021196948e+02 +8.6867773108e+02 2.6734912645e+03 2.2500999513e+03 1.9633e+02 0.0000e+00
       11  1    3    3    0    0 +3.4975839828e-02 -8.4753003801e-02 -2.6126567618e-03 9.1724957106e-02 5.1100000000e-04 0.0000e+00 1.0000e+00
  1000022  1    3    3    0    0 -1.1211907375e+03 -2.7012721648e+02 -3.3221433757e+01 2.5285650173e+03 2.2500000000e+03 0.0000e+00 0.0000e+00
      -11  1    4    4    0    0 +2.3408921415e-02 +2.6914989336e-03 -6.8114919669e-02 7.2077213466e-02 5.1100000000e-04 0.0000e+00 -1.0000e+00
  1000022  1    4    4    0    0 +1.1211323527e+03 +2.7020927798e+02 +8.6874584600e+02 2.6734191873e+03 2.2500000000e+03 0.0000e+00 0.0000e+00
<mgrwt>
<rscale>  0 0.51346237E+04</rscale>
<asrwt>0</asrwt>
<pdfrwt beam="1">  1        2 0.46443090E+00 0.51346237E+04</pdfrwt>
<pdfrwt beam="2">  1       -2 0.33589956E+00 0.51346237E+04</pdfrwt>
<totfact> 0.23268724E-02</totfact>
</mgrwt>
</event>
<event>
 8      1 +1.2359593e-08 5.36352500e+03 7.81860800e-03 7.77475200e-02
        2 -1    0    0  501    0 +0.0000000000e+00 +0.0000000000e+00 +2.0439709863e+03 2.0439709863e+03 2.5500000000e-03 0.0000e+00 1.0000e+00
       -2 -1    0    0    0  501 -0.0000000000e+00 -0.0000000000e+00 -3.5185674448e+03 3.5185674448e+03 2.5500000000e-03 0.0000e+00 -1.0000e+00
  1000011  2    1    2    0    0 -7.6064972529e+02 -1.2173837960e+03 -4.6627502508e+02 2.7094188781e+03 2.2500948750e+03 5.7020e+02 0.0000e+00
 -1000011  2    1    2    0    0 +7.6064972529e+02 +1.2173837960e+03 -1.0083214335e+03 2.8531195531e+03 2.2501039442e+03 5.6347e+02 0.0000e+00
       11  1    3    3    0    0 -5.3864201754e-02 +2.3346465435e-02 +4.7161402907e-02 7.5305167632e-02 5.1100000000e-04 0.0000e+00 1.0000e+00
  1000022  1    3    3    0    0 -7.6059586109e+02 -1.2174071425e+03 -4.6632218648e+02 2.7093435729e+03 2.2500000000e+03 0.0000e+00 0.0000e+00
      -11  1    4    4    0    0 +1.1817400404e-01 +1.2812422714e-01 -1.1484182734e-01 2.0873384754e-01 5.1100000000e-04 0.0000e+00 -1.0000e+00
  1000022  1    4    4    0    0 +7.6053155129e+02 +1.2172556718e+03 -1.0082065916e+03 2.8529108192e+03 2.2500000000e+03 0.0000e+00 0.0000e+00
<mgrwt>
<rscale>  0 0.53635249E+04</rscale>
<asrwt>0</asrwt>
<pdfrwt beam="1">  1        2 0.31445708E+00 0.53635249E+04</pdfrwt>
<pdfrwt beam="2">  1       -2 0.54131807E+00 0.53635249E+04</pdfrwt>
<totfact> 0.42902571E-03</totfact>
</mgrwt>
</event>
<event>
 8      1 +1.2359593e-08 5.25393600e+03 7.81860800e-03 7.79048600e-02
        2 -1    0    0  501    0 +0.0000000000e+00 +0.0000000000e+00 +3.6701978432e+03 3.6701978432e+03 2.5500000000e-03 0.0000e+00 1.0000e+00
       -2 -1    0    0    0  501 -0.0000000000e+00 -0.0000000000e+00 -1.8802693810e+03 1.8802693810e+03 2.5500000000e-03 0.0000e+00 -1.0000e+00
  1000011  2    1    2    0    0 -6.2101214985e+02 +3.3763801575e+02 -3.2719389254e+02 2.3811065714e+03 2.2501015846e+03 7.6143e+02 0.0000e+00
 -1000011  2    1    2    0    0 +6.2101214985e+02 -3.3763801575e+02 +2.1171223547e+03 3.1693606528e+03 2.2501076336e+03 2.5365e+02 0.0000e+00
       11  1    3    3    0    0 +6.2729820200e-02 -3.9894441873e-02 -1.7563697389e-02 7.6389404593e-02 5.1100000000e-04 0.0000e+00 1.0000e+00
  1000022  1    3    3    0    0 -6.2107487967e+02 +3.3767791019e+02 -3.2717632884e+02 2.3810301819e+03 2.2500000000e+03 0.0000e+00 0.0000e+00
      -11  1    4    4    0    0 -2.2002072001e-03 +5.4048647560e-02 -1.9196740587e-02 5.7400984538e-02 5.1100000000e-04 0.0000e+00 -1.0000e+00
  1000022  1    4    4    0    0 +6.2101435005e+02 -3.3769206440e+02 +2.1171415515e+03 3.1693032519e+03 2.2500000000e+03 0.0000e+00 0.0000e+00
<mgrwt>
<rscale>  0 0.52539359E+04</rscale>
<asrwt>0</asrwt>
<pdfrwt beam="1">  1        2 0.56464582E+00 0.52539359E+04</pdfrwt>
<pdfrwt beam="2">  1       -2 0.28927221E+00 0.52539359E+04</pdfrwt>
<totfact> 0.16148100E-02</totfact>
</mgrwt>
</event>
<event>
 8      1 +1.2359593e-08 4.55520300e+03 7.81860800e-03 7.90104300e-02
       -2 -1    0    0    0  501 -0.0000000000e+00 +0.0000000000e+00 +1.4245577414e+03 1.4245577414e+03 2.5500000000e-03 0.0000e+00 -1.0000e+00
        2 -1    0    0  501    0 +0.0000000000e+00 -0.0000000000e+00 -3.6414594416e+03 3.6414594416e+03 2.5500000000e-03 0.0000e+00 1.0000e+00
  1000011  2    1    2    0    0 +2.9315038805e+02 +4.2083036396e+01 -1.3218573245e+03 2.6263952958e+03 2.2500971827e+03 2.5226e+03 0.0000e+00
 -1000011  2    1    2    0    0 -2.9315038805e+02 -4.2083036396e+01 -8.9504437569e+02 2.4396218873e+03 2.2500983059e+03 9.5044e+02 0.0000e+00
       11  1    3    3    0    0 +1.0895615109e-02 +9.5327894129e-02 -2.7376144112e-02 9.9778934964e-02 5.1100000000e-04 0.0000e+00 1.0000e+00
  1000022  1    3    3    0    0 +2.9313949244e+02 +4.1987708502e+01 -1.3218299484e+03 2.6262955169e+03 2.2500000000e+03 0.0000e+00 0.0000e+00
      -11  1    4    4    0    0 +8.1653526323e-02 +6.0292360855e-03 -6.5222986279e-02 1.0468022083e-01 5.1100000000e-04 0.0000e+00 -1.0000e+00
  1000022  1    4    4    0    0 -2.9323204158e+02 -4.2089065632e+01 -8.9497915271e+02 2.4395172070e+03 2.2500000000e+03 0.0000e+00 0.0000e+00
<mgrwt>
<rscale>  0 0.45552033E+04</rscale>
<asrwt>0</asrwt>
<pdfrwt beam="1">  1        2 0.56022453E+00 0.45552033E+04</pdfrwt>
<pdfrwt beam="2">  1       -2 0.21916273E+00 0.45552033E+04</pdfrwt>
<totfact> 0.48509814E-02</totfact>
</mgrwt>
</event>
<event>
 8      1 +1.2359593e-08 6.23525700e+03 7.81860800e-03 7.66189800e-02
       -2 -1    0    0    0  501 -0.0000000000e+00 +0.0000000000e+00 +2.6652255946e+03 2.6652255946e+03 2.5500000000e-03 0.0000e+00 -1.0000e+00
        2 -1    0    0  501    0 +0.0000000000e+00 -0.0000000000e+00 -3.6468240016e+03 3.6468240016e+03 2.5500000000e-03 0.0000e+00 1.0000e+00
  1000011  2    1    2    0    0 +6.5303288923e+02 -8.3628997450e+02 +1.4113943663e+03 2.8602116150e+03 2.2500985644e+03 2.9607e+02 0.0000e+00
 -1000011  2    1    2    0    0 -6.5303288923e+02 +8.3628997450e+02 -2.3929927733e+03 3.4518379813e+03 2.2500973668e+03 4.4007e+02 0.0000e+00
       11  1    3    3    0    0 +5.7520821096e-02 +4.0968902803e-02 -1.3690965048e-02 7.1936077330e-02 5.1100000000e-04 0.0000e+00 1.0000e+00
  1000022  1    3    3    0    0 +6.5297536840e+02 -8.3633094340e+02 +1.4114080573e+03 2.8601396789e+03 2.2500000000e+03 0.0000e+00 0.0000e+00
      -11  1    4    4    0    0 -4.9627149318e-03 +1.3326697690e-01 -1.4944284201e-01 2.0029513109e-01 5.1100000000e-04 0.0000e+00 -1.0000e+00
  1000022  1    4    4    0    0 -6.5302792651e+02 +8.3615670752e+02 -2.3928433304e+03 3.4516376861e+03 2.2500000000e+03 0.0000e+00 0.0000e+00
<mgrwt>
<rscale>  0 0.62352574E+04</rscale>
<asrwt>0</asrwt>
<pdfrwt beam="1">  1        2 0.56104984E+00 0.62352574E+04</pdfrwt>
<pdfrwt beam="2">  1       -2 0.41003471E+00 0.62352574E+04</pdfrwt>
<totfact> 0.26896198E-03</totfact>
</mgrwt>
</event>
<event>
 8      1 +1.2359593e-08 4.99347400e+03 7.81860800e-03 7.82951500e-02
       -2 -1    0    0    0  501 -0.0000000000e+00 +0.0000000000e+00 +2.3280252522e+03 2.3280252522e+03 2.5500000000e-03 0.0000e+00 -1.0000e+00
        2 -1    0    0  501    0 +0.0000000000e+00 -0.0000000000e+00 -2.6776749542e+03 2.6776749542e+03 2.5500000000e-03 0.0000e+00 1.0000e+00
  1000011  2    1    2    0    0 +2.4549794221e+02 -3.9139879947e+02 -1.1556071854e+03 2.5713610734e+03 2.2501127845e+03 2.2343e+01 0.0000e+00
 -1000011  2    1    2    0    0 -2.4549794221e+02 +3.9139879947e+02 +8.0595748334e+02 2.4343391331e+03 2.2501060619e+03 9.9256e+02 0.0000e+00
       11  1    3    3    0    0 -9.1693649919e-02 -2.4637792246e-02 -2.9023738327e-03 9.4991741031e-02 5.1100000000e-04 0.0000e+00 1.0000e+00
  1000022  1    3    3    0    0 +2.4558963586e+02 -3.9137416168e+02 -1.1556042830e+03 2.5712660816e+03 2.2500000000e+03 0.0000e+00 0.0000e+00
      -11  1    4    4    0    0 -7.7965198866e-02 -4.6734610428e-02 +9.0697002917e-02 1.2840912568e-01 5.1100000000e-04 0.0000e+00 -1.0000e+00
  1000022  1    4    4    0    0 -2.4541997701e+02 +3.9144553408e+02 +8.0586678634e+02 2.4342107239e+03 2.2500000000e+03 0.0000e+00 0.0000e+00
<mgrwt>
<rscale>  0 0.49934737E+04</rscale>
<asrwt>0</asrwt>
<pdfrwt beam="1">  1        2 0.41194999E+00 0.49934737E+04</pdfrwt>
<pdfrwt beam="2">  1       -2 0.35815773E+00 0.49934737E+04</pdfrwt>
<totfact> 0.27553739E-02</totfact>
</mgrwt>
</event>
<event>
 8      1 +1.2359593e-08 4.58735600e+03 7.81860800e-03 7.89551900e-02
       -2 -1    0    0    0  501 -0.0000000000e+00 +0.0000000000e+00 +1.6331583415e+03 1.6331583415e+03 2.5500000000e-03 0.0000e+00 -1.0000e+00
        2 -1    0    0  501    0 +0.0000000000e+00 -0.0000000000e+00 -3.2213400656e+03 3.2213400656e+03 2.5500000000e-03 0.0000e+00 1.0000e+00
  1000011  2    1    2    0    0 -4.3453334685e+01 +1.0284627121e+02 -1.2499235835e+03 2.5763769852e+03 2.2500986328e+03 6.8276e+02 0.0000e+00
 -1000011  2    1    2    0    0 +4.3453334685e+01 -1.0284627121e+02 -3.3825814061e+02 2.2781214219e+03 2.2501006856e+03 4.0091e+01 0.0000e+00
       11  1    3    3    0    0 -6.2613840319e-02 +8.0983262667e-02 -7.4161665809e-02 1.2640805026e-01 5.1100000000e-04 0.0000e+00 1.0000e+00
  1000022  1    3    3    0    0 -4.3390720844e+01 +1.0276528794e+02 -1.2498494219e+03 2.5762505772e+03 2.2500000000e+03 0.0000e+00 0.0000e+00
      -11  1    4    4    0    0 +6.8644676774e-02 -6.2187764463e-02 +3.3682586498e-02 9.8560575885e-02 5.1100000000e-04 0.0000e+00 -1.0000e+00
  1000022  1    4    4    0    0 +4.3384690008e+01 -1.0278408344e+02 -3.3829182319e+02 2.2780228613e+03 2.2500000000e+03 0.0000e+00 0.0000e+00
<mgrwt>
<rscale>  0 0.45873558E+04</rscale>
<asrwt>0</asrwt>
<pdfrwt beam="1">  1        2 0.49559078E+00 0.45873558E+04</pdfrwt>
<pdfrwt beam="2">  1       -2 0.25125513E+00 0.45873558E+04</pdfrwt>
<totfact> 0.59581512E-02</totfact>
</mgrwt>
</event>
<event>
 8      1 +1.2359593e-08 4.54976600e+03 7.81860800e-03 7.90198200e-02
       -2 -1    0    0    0  501 -0.0000000000e+00 +0.0000000000e+00 +1.4301561824e+03 1.4301561824e+03 2.5500000000e-03 0.0000e+00 -1.0000e+00
        2 -1    0    0  501    0 +0.0000000000e+00 -0.0000000000e+00 -3.6185510104e+03 3.6185510104e+03 2.5500000000e-03 0.0000e+00 1.0000e+00
  1000011  2    1    2    0    0 -1.5816250923e+02 +2.7099995660e+02 -1.2239961705e+03 2.5806087490e+03 2.2500930056e+03 3.1774e+03 0.0000e+00
 -1000011  2    1    2    0    0 +1.5816250923e+02 -2.7099995660e+02 -9.6439865757e+02 2.4680984438e+03 2.2501086200e+03 2.4855e+03 0.0000e+00
       11  1    3    3    0    0 -1.8801282377e-03 +9.5669304588e-02 -1.0111060457e-01 1.3921122830e-01 5.1100000000e-04 0.0000e+00 1.0000e+00
  1000022  1    3    3    0    0 -1.5816062910e+02 +2.7090428729e+02 -1.2238950599e+03 2.5804695377e+03 2.2500000000e+03 0.0000e+00 0.0000e+00
      -11  1    4    4    0    0 -6.6778204626e-02 +6.0133700294e-02 -4.7266741382e-03 8.9988847118e-02 5.1100000000e-04 0.0000e+00 -1.0000e+00
  1000022  1    4    4    0    0 +1.5822928744e+02 -2.7106009030e+02 -9.6439393089e+02 2.4680084550e+03 2.2500000000e+03 0.0000e+00 0.0000e+00
<mgrwt>
<rscale>  0 0.45497662E+04</rscale>
<asrwt>0</asrwt>
<pdfrwt beam="1">  1        2 0.55670015E+00 0.45497662E+04</pdfrwt>
<pdfrwt beam="2">  1       -2 0.22002403E+00 0.45497662E+04</pdfrwt>
<totfact> 0.49797541E-02</totfact>
</mgrwt>
</event>
<event>
 8      1 +1.2359593e-08 5.24729200e+03 7.81860800e-03 7.79145300e-02
        2 -1    0    0  501    0 +0.0000000000e+00 +0.0000000000e+00 +3.8456451510e+03 3.8456451510e+03 2.5500000000e-03 0.0000e+00 1.0000e+00
       -2 -1    0    0    0  501 -0.0000000000e+00 -0.0000000000e+00 -1.7899512249e+03 1.7899512249e+03 2.5500000000e-03 0.0000e+00 -1.0000e+00
  1000011  2    1    2    0    0 +6.7890420087e+02 -1.1024740777e+03 +6.1999760167e+02 2.6690269889e+03 2.2500995613e+03 1.6070e+03 0.0000e+00
 -1000011  2    1    2    0    0 -6.7890420087e+02 +1.1024740777e+03 +1.4356963244e+03 2.9665693870e+03 2.2500999947e+03 3.6064e+01 0.0000e+00
       11  1    3    3    0    0 +4.4490955498e-02 +5.3161248571e-02 +4.8356675146e-02 8.4523323892e-02 5.1100000000e-04 0.0000e+00 1.0000e+00
  1000022  1    3    3    0    0 +6.7885970991e+02 -1.1025272389e+03 +6.1994924500e+02 2.6689424656e+03 2.2500000000e+03 0.0000e+00 0.0000e+00
      -11  1    4    4    0    0 -2.4014620610e-02 +1.3271267644e-01 +9.3706767007e-03 1.3519403248e-01 5.1100000000e-04 0.0000e+00 -1.0000e+00
  1000022  1    4    4    0    0 -6.7888018625e+02 +1.1023413650e+03 +1.4356869537e+03 2.9664341930e+03 2.2500000000e+03 0.0000e+00 0.0000e+00
<mgrwt>
<rscale>  0 0.52472916E+04</rscale>
<asrwt>0</asrwt>
<pdfrwt beam="1">  1        2 0.59163771E+00 0.52472916E+04</pdfrwt>
<pdfrwt beam="2">  1       -2 0.27537712E+00 0.52472916E+04</pdfrwt>
<totfact> 0.14481470E-02</totfact>
</mgrwt>
</event>
<event>
 8      1 +1.2359593e-08 4.74463300e+03 7.81860800e-03 7.86915500e-02
       -2 -1    0    0    0  501 -0.0000000000e+00 +0.0000000000e+00 +2.6114753656e+03 2.6114753656e+03 2.5500000000e-03 0.0000e+00 -1.0000e+00
        2 -1    0    0  501    0 +0.0000000000e+00 -0.0000000000e+00 -2.1550593880e+03 2.1550593880e+03 2.5500000000e-03 0.0000e+00 1.0000e+00
  1000011  2    1    2    0    0 +3.2609388749e+02 -3.7064191514e+02 -3.4117202083e+02 2.3287467726e+03 2.2501001157e+03 7.2858e+02 0.0000e+00
 -1000011  2    1    2    0    0 -3.2609388749e+02 +3.7064191514e+02 +7.9758799840e+02 2.4377879810e+03 2.2501002139e+03 9.3824e+01 0.0000e+00
       11  1    3    3    0    0 +1.6119784825e-02 -4.2588584035e-02 +8.1958412554e-02 9.3760744308e-02 5.1100000000e-04 0.0000e+00 1.0000e+00
  1000022  1    3    3    0    0 +3.2607776771e+02 -3.7059932656e+02 -3.4125397924e+02 2.3286530119e+03 2.2500000000e+03 0.0000e+00 0.0000e+00
      -11  1    4    4    0    0 -1.0093478770e-01 +6.7567781892e-02 +6.3393900437e-02 1.3701198443e-01 5.1100000000e-04 0.0000e+00 -1.0000e+00
  1000022  1    4    4    0    0 -3.2599295270e+02 +3.7057434736e+02 +7.9752460450e+02 2.4376509691e+03 2.2500000000e+03 0.0000e+00 0.0000e+00
<mgrwt>
<rscale>  0 0.47446325E+04</rscale>
<asrwt>0</asrwt>
<pdfrwt beam="1">  1        2 0.33154760E+00 0.47446325E+04</pdfrwt>
<pdfrwt beam="2">  1       -2 0.40176544E+00 0.47446325E+04</pdfrwt>
<totfact> 0.29400829E-02</totfact>
</mgrwt>
</event>
<event>
 8      1 +1.2359593e-08 5.81186200e+03 7.81860800e-03 7.71417600e-02
        2 -1    0    0  501    0 +0.0000000000e+00 +0.0000000000e+00 +2.9703415930e+03 2.9703415930e+03 2.5500000000e-03 0.0000e+00 1.0000e+00
       -2 -1    0    0    0  501 -0.0000000000e+00 -0.0000000000e+00 -2.8429169550e+03 2.8429169550e+03 2.5500000000e-03 0.0000e+00 -1.0000e+00
  1000011  2    1    2    0    0 -5.5993701657e+02 +2.0511996262e+01 -1.6881454415e+03 2.8682288507e+03 2.2501003319e+03 2.3143e+03 0.0000e+00
 -1000011  2    1    2    0    0 +5.5993701657e+02 -2.0511996262e+01 +1.8155700795e+03 2.9450296973e+03 2.2501011088e+03 1.2210e+03 0.0000e+00
       11  1    3    3    0    0 +2.1630692923e-02 +7.2224018747e-03 +4.3375278021e-02 4.9007401720e-02 5.1100000000e-04 0.0000e+00 1.0000e+00
  1000022  1    3    3    0    0 -5.5995864726e+02 +2.0504773860e+01 -1.6881888168e+03 2.8681798433e+03 2.2500000000e+03 0.0000e+00 0.0000e+00
      -11  1    4    4    0    0 +1.1479710831e-01 -4.6110207492e-02 +1.3075740778e-01 1.8000635408e-01 5.1100000000e-04 0.0000e+00 -1.0000e+00
  1000022  1    4    4    0    0 +5.5982221946e+02 -2.0465886055e+01 +1.8154393221e+03 2.9448496909e+03 2.2500000000e+03 0.0000e+00 0.0000e+00
<mgrwt>
<rscale>  0 0.58118618E+04</rscale>
<asrwt>0</asrwt>
<pdfrwt beam="1">  1        2 0.45697563E+00 0.58118618E+04</pdfrwt>
<pdfrwt beam="2">  1       -2 0.43737184E+00 0.58118618E+04</pdfrwt>
<totfact> 0.52373085E-03</totfact>
</mgrwt>
</event>
<event>
 8      1 +1.2359593e-08 4.91246100e+03 7.81860800e-03 7.84215500e-02
        2 -1    0    0  501    0 +0.0000000000e+00 +0.0000000000e+00 +2.5844567436e+03 2.5844567436e+03 2.5500000000e-03 0.0000e+00 1.0000e+00
       -2 -1    0    0    0  501 -0.0000000000e+00 -0.0000000000e+00 -2.3343658517e+03 2.3343658517e+03 2.5500000000e-03 0.0000e+00 -1.0000e+00
  1000011  2    1    2    0    0 -4.1932031090e+02 +8.8281579957e+02 +2.4741605102e+02 2.4656334500e+03 2.2500978530e+03 1.5021e+03 0.0000e+00
 -1000011  2    1    2    0    0 +4.1932031090e+02 -8.8281579957e+02 +2.6748409096e+00 2.4531891454e+03 2.2500970133e+03 1.0340e+02 0.0000e+00
       11  1    3    3    0    0 -5.0952344884e-02 -1.8056775793e-02 +8.4046065299e-02 9.9930928717e-02 5.1100000000e-04 0.0000e+00 1.0000e+00
  1000022  1    3    3    0    0 -4.1926935855e+02 +8.8283385635e+02 +2.4733200495e+02 2.4655335191e+03 2.2500000000e+03 0.0000e+00 0.0000e+00
      -11  1    4    4    0    0 -5.9104837078e-02 +3.1992222311e-02 +4.6357727025e-03 6.7369393148e-02 5.1100000000e-04 0.0000e+00 -1.0000e+00
  1000022  1    4    4    0    0 +4.1937941573e+02 -8.8284779180e+02 +2.6702051369e+00 2.4531217760e+03 2.2500000000e+03 0.0000e+00 0.0000e+00
<mgrwt>
<rscale>  0 0.49124607E+04</rscale>
<asrwt>0</asrwt>
<pdfrwt beam="1">  1        2 0.39760873E+00 0.49124607E+04</pdfrwt>
<pdfrwt beam="2">  1       -2 0.35913321E+00 0.49124607E+04</pdfrwt>
<totfact> 0.31032401E-02</totfact>
</mgrwt>
</event>
<event>
 8      1 +1.2359593e-08 4.78098400e+03 7.81860800e-03 7.86321000e-02
        2 -1    0    0  501    0 +0.0000000000e+00 +0.0000000000e+00 +1.2336407987e+03 1.2336407987e+03 2.5500000000e-03 0.0000e+00 1.0000e+00
       -2 -1    0    0    0  501 -0.0000000000e+00 -0.0000000000e+00 -4.6321847378e+03 4.6321847378e+03 2.5500000000e-03 0.0000e+00 -1.0000e+00
  1000011  2    1    2    0    0 -3.0648154612e+02 +7.0978230310e+02 -1.4147284861e+03 2.7680531940e+03 2.2500977623e+03 1.7813e+03 0.0000e+00
 -1000011  2    1    2    0    0 +3.0648154612e+02 -7.0978230310e+02 -1.9838154531e+03 3.0977723425e+03 2.2500995262e+03 9.4337e+02 0.0000e+00
       11  1    3    3    0    0 +4.5475781623e-02 +1.1765403662e-02 +3.5880162466e-02 5.9111065166e-02 5.1100000000e-04 0.0000e+00 1.0000e+00
  1000022  1    3    3    0    0 -3.0652702190e+02 +7.0977053770e+02 -1.4147643662e+03 2.7679940830e+03 2.2500000000e+03 0.0000e+00 0.0000e+00
      -11  1    4    4    0    0 -4.5529753597e-02 -1.0467260646e-01 -1.4560530027e-01 1.8501480262e-01 5.1100000000e-04 0.0000e+00 -1.0000e+00
  1000022  1    4    4    0    0 +3.0652707587e+02 -7.0967763049e+02 -1.9836698478e+03 3.0975873277e+03 2.2500000000e+03 0.0000e+00 0.0000e+00
<mgrwt>
<rscale>  0 0.47809840E+04</rscale>
<asrwt>0</asrwt>
<pdfrwt beam="1">  1        2 0.18979089E+00 0.47809840E+04</pdfrwt>
<pdfrwt beam="2">  1       -2 0.71264380E+00 0.47809840E+04</pdfrwt>
<totfact> 0.27572598E-03</totfact>
</mgrwt>
</event>
<event>
 8      1 +1.2359593e-08 4.73944100e+03 7.81860800e-03 7.87000800e-02
       -2 -1    0    0    0  501 -0.0000000000e+00 +0.0000000000e+00 +1.9088578424e+03 1.9088578424e+03 2.5500000000e-03 0.0000e+00 -1.0000e+00
        2 -1    0    0  501    0 +0.0000000000e+00 -0.0000000000e+00 -2.9418512502e+03 2.9418512502e+03 2.5500000000e-03 0.0000e+00 1.0000e+00
  1000011  2    1    2    0    0 +5.2084820624e+01 -6.4080057384e+02 -1.3453882861e+02 2.3440123973e+03 2.2501011574e+03 1.2547e+03 0.0000e+00
 -1000011  2    1    2    0    0 -5.2084820624e+01 +6.4080057384e+02 -8.9845457926e+02 2.5066966953e+03 2.2501043281e+03 4.2523e+02 0.0000e+00
       11  1    3    3    0    0 +4.5564445099e-02 -8.0638135299e-02 -8.3904393056e-02 1.2497534052e-01 5.1100000000e-04 0.0000e+00 1.0000e+00
  1000022  1    3    3    0    0 +5.2039256178e+01 -6.4071993570e+02 -1.3445492421e+02 2.3438874220e+03 2.2500000000e+03 0.0000e+00 0.0000e+00
      -11  1    4    4    0    0 +9.8190508952e-02 +3.8965355277e-02 -6.9632245960e-02 1.2652503892e-01 5.1100000000e-04 0.0000e+00 -1.0000e+00
  1000022  1    4    4    0    0 -5.2183011132e+01 +6.4076160848e+02 -8.9838494702e+02 2.5065701703e+03 2.2500000000e+03 0.0000e+00 0.0000e+00
<mgrwt>
<rscale>  0 0.47394412E+04</rscale>
<asrwt>0</asrwt>
<pdfrwt beam="1">  1        2 0.45259250E+00 0.47394412E+04</pdfrwt>
<pdfrwt beam="2">  1       -2 0.29367044E+00 0.47394412E+04</pdfrwt>
<totfact> 0.48864137E-02</totfact>
</mgrwt>
</event>
<event>
 8      1 +1.2359593e-08 4.77902400e+03 7.81860800e-03 7.86352900e-02
       -2 -1    0    0    0  501 -0.0000000000e+00 +0.0000000000e+00 +1.5337422358e+03 1.5337422358e+03 2.5500000000e-03 0.0000e+00 -1.0000e+00
        2 -1    0    0  501    0 +0.0000000000e+00 -0.0000000000e+00 -3.7227683872e+03 3.7227683872e+03 2.5500000000e-03 0.0000e+00 1.0000e+00
  1000011  2    1    2    0    0 +4.3692912059e+02 -6.2810607206e+02 -1.3670447046e+03 2.7417477080e+03 2.2500988813e+03 2.6993e+02 0.0000e+00
 -1000011  2    1    2    0    0 -4.3692912059e+02 +6.2810607206e+02 -8.2198144684e+02 2.5147629151e+03 2.2501010479e+03 2.3499e+02 0.0000e+00
       11  1    3    3    0    0 -5.4691762568e-02 -7.4018787428e-02 -5.6514311043e-03 9.2207206378e-02 5.1100000000e-04 0.0000e+00 1.0000e+00
  1000022  1    3    3    0    0 +4.3698381235e+02 -6.2803205328e+02 -1.3670390531e+03 2.7416555008e+03 2.2500000000e+03 0.0000e+00 0.0000e+00
      -11  1    4    4    0    0 -2.0514154136e-02 -3.0451860964e-03 +6.7917578249e-02 7.1015224937e-02 5.1100000000e-04 0.0000e+00 -1.0000e+00
  1000022  1    4    4    0    0 -4.3690860644e+02 +6.2810911725e+02 -8.2204936442e+02 2.5146918998e+03 2.2500000000e+03 0.0000e+00 0.0000e+00
<mgrwt>
<rscale>  0 0.47790238E+04</rscale>
<asrwt>0</asrwt>
<pdfrwt beam="1">  1        2 0.57273359E+00 0.47790238E+04</pdfrwt>
<pdfrwt beam="2">  1       -2 0.23596035E+00 0.47790238E+04</pdfrwt>
<totfact> 0.32549582E-02</totfact>
</mgrwt>
</event>
<event>
 8      1 +1.2359593e-08 4.90793000e+03 7.81860800e-03 7.84286900e-02
        1 -1    0    0  501    0 +0.0000000000e+00 +0.0000000000e+00 +3.0508456677e+03 3.0508456677e+03 5.0400000000e-03 0.0000e+00 1.0000e+00
       -1 -1    0    0    0  501 -0.0000000000e+00 -0.0000000000e+00 -1.9738602558e+03 1.9738602558e+03 5.0400000000e-03 0.0000e+00 -1.0000e+00
  1000011  2    1    2    0    0 +6.1906718909e+02 +7.3674122006e+02 +7.2437089715e+02 2.5521941058e+03 2.2500999415e+03 1.4584e+03 0.0000e+00
 -1000011  2    1    2    0    0 -6.1906718909e+02 -7.3674122006e+02 +3.5261451476e+02 2.4725118177e+03 2.2500990828e+03 1.5665e+03 0.0000e+00
       11  1    3    3    0    0 +1.2048079125e-01 +4.5446433844e-02 +8.6058367253e-02 1.5487834725e-01 5.1100000000e-04 0.0000e+00 1.0000e+00
  1000022  1    3    3    0    0 +6.1894670830e+02 +7.3669577363e+02 +7.2428483878e+02 2.5520392274e+03 2.2500000000e+03 0.0000e+00 0.0000e+00
      -11  1    4    4    0    0 -6.7317606969e-02 -1.1961495932e-01 -2.3687940060e-02 1.3928667463e-01 5.1100000000e-04 0.0000e+00 -1.0000e+00
  1000022  1    4    4    0    0 -6.1899987148e+02 -7.3662160511e+02 +3.5263820270e+02 2.4723725310e+03 2.2500000000e+03 0.0000e+00 0.0000e+00
<mgrwt>
<rscale>  0 0.49079295E+04</rscale>
<asrwt>0</asrwt>
<pdfrwt beam="1">  1        1 0.46936087E+00 0.49079295E+04</pdfrwt>
<pdfrwt beam="2">  1       -1 0.30367081E+00 0.49079295E+04</pdfrwt>
<totfact> 0.12470261E-02</totfact>
</mgrwt>
</event>
<event>
 8      1 +1.2359593e-08 5.25637600e+03 7.81860800e-03 7.79013100e-02
        2 -1    0    0  501    0 +0.0000000000e+00 +0.0000000000e+00 +3.3883838323e+03 3.3883838323e+03 2.5500000000e-03 0.0000e+00 1.0000e+00
       -2 -1    0    0    0  501 -0.0000000000e+00 -0.0000000000e+00 -2.0385448564e+03 2.0385448564e+03 2.5500000000e-03 0.0000e+00 -1.0000e+00
  1000011  2    1    2    0    0 +1.1643871401e+03 +6.0251466034e+02 +1.0408222789e+03 2.8044753279e+03 2.2500998912e+03 1.2392e+03 0.0000e+00
 -1000011  2    1    2    0    0 -1.1643871401e+03 -6.0251466034e+02 +3.0901669697e+02 2.6224533607e+03 2.2500997716e+03 3.9889e+02 0.0000e+00
       11  1    3    3    0    0 +8.3124253545e-03 +5.9561810787e-02 +1.3260253568e-01 1.4560356746e-01 5.1100000000e-04 0.0000e+00 1.0000e+00
  1000022  1    3    3    0    0 +1.1643788277e+03 +6.0245509853e+02 +1.0406896764e+03 2.8043297243e+03 2.2500000000e+03 0.0000e+00 0.0000e+00
      -11  1    4    4    0    0 -2.2212752238e-02 +6.8423197475e-02 -2.6407617316e-02 7.6633956134e-02 5.1100000000e-04 0.0000e+00 -1.0000e+00
  1000022  1    4    4    0    0 -1.1643649274e+03 -6.0258308353e+02 +3.0904310459e+02 2.6223767268e+03 2.2500000000e+03 0.0000e+00 0.0000e+00
<mgrwt>
<rscale>  0 0.52563761E+04</rscale>
<asrwt>0</asrwt>
<pdfrwt beam="1">  1        2 0.52128982E+00 0.52563761E+04</pdfrwt>
<pdfrwt beam="2">  1       -2 0.31362229E+00 0.52563761E+04</pdfrwt>
<totfact> 0.18129835E-02</totfact>
</mgrwt>
</event>
<event>
 8      1 +1.2359593e-08 5.37947200e+03 7.81860800e-03 7.77249500e-02
        2 -1    0    0  501    0 +0.0000000000e+00 +0.0000000000e+00 +2.9845259232e+03 2.9845259232e+03 2.5500000000e-03 0.0000e+00 1.0000e+00
       -2 -1    0    0    0  501 -0.0000000000e+00 -0.0000000000e+00 -2.4240631780e+03 2.4240631780e+03 2.5500000000e-03 0.0000e+00 -1.0000e+00
  1000011  2    1    2    0    0 +4.7704779144e+02 -7.6549948775e+02 +1.4519417889e+03 2.8257118741e+03 2.2500996814e+03 3.2991e+03 0.0000e+00
 -1000011  2    1    2    0    0 -4.7704779144e+02 +7.6549948775e+02 -8.9147904366e+02 2.5828772272e+03 2.2501012920e+03 1.2595e+03 0.0000e+00
       11  1    3    3    0    0 -6.0544574161e-02 -9.0896668713e-02 +7.0789583459e-02 1.3015097276e-01 5.1100000000e-04 0.0000e+00 1.0000e+00
  1000022  1    3    3    0    0 +4.7710833601e+02 -7.6540859108e+02 +1.4518709993e+03 2.8255817231e+03 2.2500000000e+03 0.0000e+00 0.0000e+00
      -11  1    4    4    0    0 +1.5346229111e-02 -6.4008421327e-02 +1.7046507375e-03 6.5846419975e-02 5.1100000000e-04 0.0000e+00 -1.0000e+00
  1000022  1    4    4    0    0 -4.7706313767e+02 +7.6556349617e+02 -8.9148074831e+02 2.5828113808e+03 2.2500000000e+03 0.0000e+00 0.0000e+00
<mgrwt>
<rscale>  0 0.53794719E+04</rscale>
<asrwt>0</asrwt>
<pdfrwt beam="1">  1        2 0.45915783E+00 0.53794719E+04</pdfrwt>
<pdfrwt beam="2">  1       -2 0.37293280E+00 0.53794719E+04</pdfrwt>
<totfact> 0.13984015E-02</totfact>
</mgrwt>
</event>
<event>
 8      1 +1.2359593e-08 5.13266900e+03 7.81860800e-03 7.80836100e-02
       -2 -1    0    0    0  501 -0.0000000000e+00 +0.0000000000e+00 +2.8397676974e+03 2.8397676974e+03 2.5500000000e-03 0.0000e+00 -1.0000e+00
        2 -1    0    0  501    0 +0.0000000000e+00 -0.0000000000e+00 -2.3192295228e+03 2.3192295228e+03 2.5500000000e-03 0.0000e+00 1.0000e+00
  1000011  2    1    2    0    0 -9.0218160533e+02 -2.0649028259e+02 +1.0808845319e+03 2.6622983349e+03 2.2501002570e+03 4.7896e+02 0.0000e+00
 -1000011  2    1    2    0    0 +9.0218160533e+02 +2.0649028259e+02 -5.6034635732e+02 2.4966988853e+03 2.2500994196e+03 3.2621e+02 0.0000e+00
       11  1    3    3    0    0 -9.0480513380e-02 +4.3456140723e-02 -2.2534111430e-02 1.0287471200e-01 5.1100000000e-04 0.0000e+00 1.0000e+00
  1000022  1    3    3    0    0 -9.0209112482e+02 -2.0653373873e+02 +1.0809070660e+03 2.6621954601e+03 2.2500000000e+03 0.0000e+00 0.0000e+00
      -11  1    4    4    0    0 -1.9863266872e-02 -3.5034168553e-02 +5.4036205482e-02 6.7395211872e-02 5.1100000000e-04 0.0000e+00 -1.0000e+00
  1000022  1    4    4    0    0 +9.0220146860e+02 +2.0652531676e+02 -5.6040039353e+02 2.4966314901e+03 2.2500000000e+03 0.0000e+00 0.0000e+00
<mgrwt>
<rscale>  0 0.51326691E+04</rscale>
<asrwt>0</asrwt>
<pdfrwt beam="1">  1        2 0.35680454E+00 0.51326691E+04</pdfrwt>
<pdfrwt beam="2">  1       -2 0.43688734E+00 0.51326691E+04</pdfrwt>
<totfact> 0.13531530E-02</totfact>
</mgrwt>
</event>
<event>
 8      1 +1.2359593e-08 5.42110100e+03 7.81860800e-03 7.76664000e-02
       -2 -1    0    0    0  501 -0.0000000000e+00 +0.0000000000e+00 +2.7238292277e+03 2.7238292277e+03 2.5500000000e-03 0.0000e+00 -1.0000e+00
        2 -1    0    0  501    0 +0.0000000000e+00 -0.0000000000e+00 -2.6973360373e+03 2.6973360373e+03 2.5500000000e-03 0.0000e+00 1.0000e+00
  1000011  2    1    2    0    0 +4.2855414097e+02 +1.2595427312e+03 +7.3021422945e+02 2.7140865488e+03 2.2500992045e+03 1.1930e+03 0.0000e+00
 -1000011  2    1    2    0    0 -4.2855414097e+02 -1.2595427312e+03 -7.0372103913e+02 2.7070787162e+03 2.2500989603e+03 3.0426e+02 0.0000e+00
       11  1    3    3    0    0 -6.3933744063e-02 -9.1226448855e-03 -9.6926655725e-03 6.5306623550e-02 5.1100000000e-04 0.0000e+00 1.0000e+00
  1000022  1    3    3    0    0 +4.2861807471e+02 +1.2595518539e+03 +7.3022392212e+02 2.7140212422e+03 2.2500000000e+03 0.0000e+00 0.0000e+00
      -11  1    4    4    0    0 -4.0300641776e-02 -4.6287355239e-02 +6.8886574839e-02 9.2262027915e-02 5.1100000000e-04 0.0000e+00 -1.0000e+00
  1000022  1    4    4    0    0 -4.2851384033e+02 -1.2594964439e+03 -7.0378992570e+02 2.7069864542e+03 2.2500000000e+03 0.0000e+00 0.0000e+00
<mgrwt>
<rscale>  0 0.54211005E+04</rscale>
<asrwt>0</asrwt>
<pdfrwt beam="1">  1        2 0.41497477E+00 0.54211005E+04</pdfrwt>
<pdfrwt beam="2">  1       -2 0.41905065E+00 0.54211005E+04</pdfrwt>
<totfact> 0.10457799E-02</totfact>
</mgrwt>
</event>
<event>
 8      1 +1.2359593e-08 5.21847100e+03 7.81860800e-03 7.79566200e-02
       -2 -1    0    0    0  501 -0.0000000000e+00 +0.0000000000e+00 +2.2947113463e+03 2.2947113463e+03 2.5500000000e-03 0.0000e+00 -1.0000e+00
        2 -1    0    0  501    0 +0.0000000000e+00 -0.0000000000e+00 -2.9668701343e+03 2.9668701343e+03 2.5500000000e-03 0.0000e+00 1.0000e+00
  1000011  2    1    2    0    0 +6.4296584674e+02 -1.0064919115e+03 +2.3314078415e+02 2.5580729583e+03 2.2501003503e+03 2.9463e+02 0.0000e+00
 -1000011  2    1    2    0    0 -6.4296584674e+02 +1.0064919115e+03 -9.0529957216e+02 2.7035085224e+03 2.2501022126e+03 5.0962e+02 0.0000e+00
       11  1    3    3    0    0 +5.5346674303e-03 +2.1725910731e-03 -8.1185038078e-02 8.1404077110e-02 5.1100000000e-04 0.0000e+00 1.0000e+00
  1000022  1    3    3    0    0 +6.4296031207e+02 -1.0064940841e+03 +2.3322196919e+02 2.5579915542e+03 2.2500000000e+03 0.0000e+00 0.0000e+00
      -11  1    4    4    0    0 +6.0209778353e-02 +5.4254063839e-02 +2.1322839868e-02 8.3807190842e-02 5.1100000000e-04 0.0000e+00 -1.0000e+00
  1000022  1    4    4    0    0 -6.4302605652e+02 +1.0064376575e+03 -9.0532089500e+02 2.7034247152e+03 2.2500000000e+03 0.0000e+00 0.0000e+00
<mgrwt>
<rscale>  0 0.52184713E+04</rscale>
<asrwt>0</asrwt>
<pdfrwt beam="1">  1        2 0.45644156E+00 0.52184713E+04</pdfrwt>
<pdfrwt beam="2">  1       -2 0.35303251E+00 0.52184713E+04</pdfrwt>
<totfact> 0.19448028E-02</totfact>
</mgrwt>
</event>
<event>
 8      1 +1.2359593e-08 4.66118800e+03 7.81860800e-03 7.88301000e-02
       -2 -1    0    0    0  501 -0.0000000000e+00 +0.0000000000e+00 +1.8233839468e+03 1.8233839468e+03 2.5500000000e-03 0.0000e+00 -1.0000e+00
        2 -1    0    0  501    0 +0.0000000000e+00 -0.0000000000e+00 -2.9788951289e+03 2.9788951289e+03 2.5500000000e-03 0.0000e+00 1.0000e+00
  1000011  2    1    2    0    0 -2.2250486327e+02 +3.1718941107e+02 -9.6069300274e+01 2.2852362134e+03 2.2501017097e+03 1.9932e+03 0.0000e+00
 -1000011  2    1    2    0    0 +2.2250486327e+02 -3.1718941107e+02 -1.0594418819e+03 2.5170428623e+03 2.2501044716e+03 5.3014e+02 0.0000e+00
       11  1    3    3    0    0 +6.5473725149e-02 +8.1992809736e-02 +3.7065794084e-03 1.0499347048e-01 5.1100000000e-04 0.0000e+00 1.0000e+00
  1000022  1    3    3    0    0 -2.2257033700e+02 +3.1710741826e+02 -9.6073006854e+01 2.2851312199e+03 2.2500000000e+03 0.0000e+00 0.0000e+00
      -11  1    4    4    0    0 +9.0396604630e-02 +3.5356110051e-02 -3.3586689950e-04 9.7066853844e-02 5.1100000000e-04 0.0000e+00 -1.0000e+00
  1000022  1    4    4    0    0 +2.2241446667e+02 -3.1722476718e+02 -1.0594415460e+03 2.5169457955e+03 2.2500000000e+03 0.0000e+00 0.0000e+00
<mgrwt>
<rscale>  0 0.46611885E+04</rscale>
<asrwt>0</asrwt>
<pdfrwt beam="1">  1        2 0.45829156E+00 0.46611885E+04</pdfrwt>
<pdfrwt beam="2">  1       -2 0.28052061E+00 0.46611885E+04</pdfrwt>
<totfact> 0.56095580E-02</totfact>
</mgrwt>
</event>
<event>
 8      1 +1.2359593e-08 5.08625700e+03 7.81860800e-03 7.81533700e-02
        2 -1    0    0  501    0 +0.0000000000e+00 +0.0000000000e+00 +3.3412134920e+03 3.3412134920e+03 2.5500000000e-03 0.0000e+00 1.0000e+00
       -2 -1    0    0    0  501 -0.0000000000e+00 -0.0000000000e+00 -1.9356744070e+03 1.9356744070e+03 2.5500000000e-03 0.0000e+00 -1.0000e+00
  1000011  2    1    2    0    0 -1.3988250286e+01 +1.0873403026e+03 +1.1916242408e+03 2.7686625592e+03 2.2501154261e+03 7.4111e+02 0.0000e+00
 -1000011  2    1    2    0    0 +1.3988250286e+01 -1.0873403026e+03 +2.1391484416e+02 2.5082253397e+03 2.2500955956e+03 1.6923e+03 0.0000e+00
       11  1    3    3    0    0 +7.5178023853e-02 +2.6104992708e-02 -3.6987561555e-02 8.7758457045e-02 5.1100000000e-04 0.0000e+00 1.0000e+00
  1000022  1    3    3    0    0 -1.4063428310e+01 +1.0873141976e+03 +1.1916612284e+03 2.7685748008e+03 2.2500000000e+03 0.0000e+00 0.0000e+00
      -11  1    4    4    0    0 -3.8342122244e-02 -3.5437192364e-02 -7.8424729047e-02 9.4215772130e-02 5.1100000000e-04 0.0000e+00 -1.0000e+00
  1000022  1    4    4    0    0 +1.4026592408e+01 -1.0873048654e+03 +2.1399326889e+02 2.5081311239e+03 2.2500000000e+03 0.0000e+00 0.0000e+00
<mgrwt>
<rscale>  0 0.50862566E+04</rscale>
<asrwt>0</asrwt>
<pdfrwt beam="1">  1        2 0.51403284E+00 0.50862566E+04</pdfrwt>
<pdfrwt beam="2">  1       -2 0.29779606E+00 0.50862566E+04</pdfrwt>
<totfact> 0.24742483E-02</totfact>
</mgrwt>
</event>
<event>
 8      1 +1.2359593e-08 4.74392600e+03 7.81860800e-03 7.86927100e-02
       -2 -1    0    0    0  501 -0.0000000000e+00 +0.0000000000e+00 +2.4761273768e+03 2.4761273768e+03 2.5500000000e-03 0.0000e+00 -1.0000e+00
        2 -1    0    0  501    0 +0.0000000000e+00 -0.0000000000e+00 -2.2721803284e+03 2.2721803284e+03 2.5500000000e-03 0.0000e+00 1.0000e+00
  1000011  2    1    2    0    0 +4.7632670523e+02 +2.9813498143e+01 -4.7776658308e+02 2.3492527390e+03 2.2501003420e+03 2.4525e+03 0.0000e+00
 -1000011  2    1    2    0    0 -4.7632670523e+02 -2.9813498143e+01 +6.8171363149e+02 2.3990549662e+03 2.2501011712e+03 5.8143e+02 0.0000e+00
       11  1    3    3    0    0 -5.2092523412e-02 +6.3786030930e-02 +1.3911760614e-02 8.3522970718e-02 5.1100000000e-04 0.0000e+00 1.0000e+00
  1000022  1    3    3    0    0 +4.7637879775e+02 +2.9749712112e+01 -4.7778049484e+02 2.3491692160e+03 2.2500000000e+03 0.0000e+00 0.0000e+00
      -11  1    4    4    0    0 +5.3515098814e-02 -4.8094170552e-02 +7.9989751118e-02 1.0758966574e-01 5.1100000000e-04 0.0000e+00 -1.0000e+00
  1000022  1    4    4    0    0 -4.7638022033e+02 -2.9765403973e+01 +6.8163364174e+02 2.3989473765e+03 2.2500000000e+03 0.0000e+00 0.0000e+00
<mgrwt>
<rscale>  0 0.47439258E+04</rscale>
<asrwt>0</asrwt>
<pdfrwt beam="1">  1        2 0.34956620E+00 0.47439258E+04</pdfrwt>
<pdfrwt beam="2">  1       -2 0.38094267E+00 0.47439258E+04</pdfrwt>
<totfact> 0.34492176E-02</totfact>
</mgrwt>
</event>
<event>
 8      1 +1.2359593e-08 5.37328700e+03 7.81860800e-03 7.77337000e-02
        2 -1    0    0  501    0 +0.0000000000e+00 +0.0000000000e+00 +3.2466330828e+03 3.2466330828e+03 2.5500000000e-03 0.0000e+00 1.0000e+00
       -2 -1    0    0    0  501 -0.0000000000e+00 -0.0000000000e+00 -2.2232430692e+03 2.2232430692e+03 2.5500000000e-03 0.0000e+00 -1.0000e+00
  1000011  2    1    2    0    0 +8.0857576537e+02 -8.8195571694e+02 -3.5416410079e+02 2.5729391217e+03 2.2500984109e+03 3.5918e+03 0.0000e+00
 -1000011  2    1    2    0    0 -8.0857576537e+02 +8.8195571694e+02 +1.3775541144e+03 2.8969370302e+03 2.2500995898e+03 6.6935e+02 0.0000e+00
       11  1    3    3    0    0 -6.3549833671e-02 -3.3740657583e-02 +2.0540895907e-02 7.4827817476e-02 5.1100000000e-04 0.0000e+00 1.0000e+00
  1000022  1    3    3    0    0 +8.0863931520e+02 -8.8192197629e+02 -3.5418464169e+02 2.5728642939e+03 2.2500000000e+03 0.0000e+00 0.0000e+00
      -11  1    4    4    0    0 -1.1043060493e-01 +9.4580944067e-02 +2.0857549646e-02 1.4688693486e-01 5.1100000000e-04 0.0000e+00 -1.0000e+00
  1000022  1    4    4    0    0 -8.0846533477e+02 +8.8186113600e+02 +1.3775332568e+03 2.8967901433e+03 2.2500000000e+03 0.0000e+00 0.0000e+00
<mgrwt>
<rscale>  0 0.53732874E+04</rscale>
<asrwt>0</asrwt>
<pdfrwt beam="1">  1        2 0.49948201E+00 0.53732874E+04</pdfrwt>
<pdfrwt beam="2">  1       -2 0.34203739E+00 0.53732874E+04</pdfrwt>
<totfact> 0.14899360E-02</totfact>
</mgrwt>
</event>
<event>
 8      1 +1.2359593e-08 5.26205100e+03 7.81860800e-03 7.78930700e-02
       -2 -1    0    0    0  501 -0.0000000000e+00 +0.0000000000e+00 +1.7391185841e+03 1.7391185841e+03 2.5500000000e-03 0.0000e+00 -1.0000e+00
        2 -1    0    0  501    0 +0.0000000000e+00 -0.0000000000e+00 -3.9803471838e+03 3.9803471838e+03 2.5500000000e-03 0.0000e+00 1.0000e+00
  1000011  2    1    2    0    0 -4.8477699406e+02 -2.3110959665e+02 +2.4170304603e+02 2.3258951215e+03 2.2500994143e+03 2.9201e+03 0.0000e+00
 -1000011  2    1    2    0    0 +4.8477699406e+02 +2.3110959665e+02 -2.4829316457e+03 3.3935706464e+03 2.2501003966e+03 3.6454e+02 0.0000e+00
       11  1    3    3    0    0 -4.6754093351e-02 -5.3115408315e-02 -7.5345295872e-02 1.0336520600e-01 5.1100000000e-04 0.0000e+00 1.0000e+00
  1000022  1    3    3    0    0 -4.8473023997e+02 -2.3105648125e+02 +2.4177839132e+02 2.3257917563e+03 2.2500000000e+03 0.0000e+00 0.0000e+00
      -11  1    4    4    0    0 -4.9727687891e-02 +6.0322938629e-02 -2.5511050221e-02 8.2236089746e-02 5.1100000000e-04 0.0000e+00 -1.0000e+00
  1000022  1    4    4    0    0 +4.8482672175e+02 +2.3104927372e+02 -2.4829061347e+03 3.3934884103e+03 2.2500000000e+03 0.0000e+00 0.0000e+00
<mgrwt>
<rscale>  0 0.52620512E+04</rscale>
<asrwt>0</asrwt>
<pdfrwt beam="1">  1        2 0.61236111E+00 0.52620512E+04</pdfrwt>
<pdfrwt beam="2">  1       -2 0.26755671E+00 0.52620512E+04</pdfrwt>
<totfact> 0.12633161E-02</totfact>
</mgrwt>
</event>
<event>
 8      1 +1.2359593e-08 4.97377900e+03 7.81860800e-03 7.83256500e-02
        2 -1    0    0  501    0 +0.0000000000e+00 +0.0000000000e+00 +2.6323903389e+03 2.6323903389e+03 2.5500000000e-03 0.0000e+00 1.0000e+00
       -2 -1    0    0    0  501 -0.0000000000e+00 -0.0000000000e+00 -2.3494306740e+03 2.3494306740e+03 2.5500000000e-03 0.0000e+00 -1.0000e+00
  1000011  2    1    2    0    0 +4.1094838904e+02 +9.3270060508e+02 -1.4681824715e+02 2.4745342316e+03 2.2501011240e+03 2.3529e+03 0.0000e+00
 -1000011  2    1    2    0    0 -4.1094838904e+02 -9.3270060508e+02 +4.2977791205e+02 2.5072867814e+03 2.2501042094e+03 7.4087e+02 0.0000e+00
       11  1    3    3    0    0 -1.1237595567e-02 +1.2529980250e-01 +4.7551693995e-02 1.3449070072e-01 5.1100000000e-04 0.0000e+00 1.0000e+00
  1000022  1    3    3    0    0 +4.1095962664e+02 +9.3257530528e+02 -1.4686579884e+02 2.4743997409e+03 2.2500000000e+03 0.0000e+00 0.0000e+00
      -11  1    4    4    0    0 -1.1401902311e-01 -7.5064128171e-02 -1.5796594565e-02 1.3742181125e-01 5.1100000000e-04 0.0000e+00 -1.0000e+00
  1000022  1    4    4    0    0 -4.1083437002e+02 -9.3262554095e+02 +4.2979370864e+02 2.5071493596e+03 2.2500000000e+03 0.0000e+00 0.0000e+00
<mgrwt>
<rscale>  0 0.49737787E+04</rscale>
<asrwt>0</asrwt>
<pdfrwt beam="1">  1        2 0.40498313E+00 0.49737787E+04</pdfrwt>
<pdfrwt beam="2">  1       -2 0.36145087E+00 0.49737787E+04</pdfrwt>
<totfact> 0.27974708E-02</totfact>
</mgrwt>
</event>
<event>
 8      1 +1.2359593e-08 4.67642200e+03 7.81860800e-03 7.88045800e-02
       -2 -1    0    0    0  501 -0.0000000000e+00 +0.0000000000e+00 +1.5043792242e+03 1.5043792242e+03 2.5500000000e-03 0.0000e+00 -1.0000e+00
        2 -1    0    0  501    0 +0.0000000000e+00 -0.0000000000e+00 -3.6342097344e+03 3.6342097344e+03 2.5500000000e-03 0.0000e+00 1.0000e+00
  1000011  2    1    2    0    0 -5.7367701177e+02 +2.6221632039e+02 -9.7692806306e+02 2.5328267144e+03 2.2501022226e+03 4.1346e+02 0.0000e+00
 -1000011  2    1    2    0    0 +5.7367701177e+02 -2.6221632039e+02 -1.1529024471e+03 2.6057622442e+03 2.2501000218e+03 8.7488e+00 0.0000e+00
       11  1    3    3    0    0 -8.3718725400e-03 -8.8408599429e-02 -1.8626613179e-02 9.0737975615e-02 5.1100000000e-04 0.0000e+00 1.0000e+00
  1000022  1    3    3    0    0 -5.7366863990e+02 +2.6230472899e+02 -9.7690943645e+02 2.5327359764e+03 2.2500000000e+03 0.0000e+00 0.0000e+00
      -11  1    4    4    0    0 +2.7052916849e-02 -1.0996394538e-01 -3.2781066721e-02 1.1789312424e-01 5.1100000000e-04 0.0000e+00 -1.0000e+00
  1000022  1    4    4    0    0 +5.7364995886e+02 -2.6210635644e+02 -1.1528696660e+03 2.6056443511e+03 2.2500000000e+03 0.0000e+00 0.0000e+00
<mgrwt>
<rscale>  0 0.46764215E+04</rscale>
<asrwt>0</asrwt>
<pdfrwt beam="1">  1        2 0.55910919E+00 0.46764215E+04</pdfrwt>
<pdfrwt beam="2">  1       -2 0.23144296E+00 0.46764215E+04</pdfrwt>
<totfact> 0.40695744E-02</totfact>
</mgrwt>
</event>
<event>
 8      1 +1.2359593e-08 5.65787800e+03 7.81860800e-03 7.73433100e-02
       -2 -1    0    0    0  501 -0.0000000000e+00 +0.0000000000e+00 +2.2630095662e+03 2.2630095662e+03 2.5500000000e-03 0.0000e+00 -1.0000e+00
        2 -1    0    0  501    0 +0.0000000000e+00 -0.0000000000e+00 -3.5363951462e+03 3.5363951462e+03 2.5500000000e-03 0.0000e+00 1.0000e+00
  1000011  2    1    2    0    0 -9.7751117522e+02 -5.2362619640e+02 -1.9771675154e+03 3.1940346974e+03 2.2501008362e+03 1.8561e+02 0.0000e+00
 -1000011  2    1    2    0    0 +9.7751117522e+02 +5.2362619640e+02 +7.0378193536e+02 2.6053700151e+03 2.2500958672e+03 2.2836e+03 0.0000e+00
       11  1    3    3    0    0 -3.1177212353e-02 +5.7079522395e-02 +8.9820823004e-03 6.5658428114e-02 5.1100000000e-04 0.0000e+00 1.0000e+00
  1000022  1    3    3    0    0 -9.7747999801e+02 -5.2368327593e+02 -1.9771764974e+03 3.1939690390e+03 2.2500000000e+03 0.0000e+00 0.0000e+00
      -11  1    4    4    0    0 -2.9282580228e-02 -2.2880730043e-02 -4.1783634512e-02 5.5920746196e-02 5.1100000000e-04 0.0000e+00 -1.0000e+00
  1000022  1    4    4    0    0 +9.7754045780e+02 +5.2364907713e+02 +7.0382371900e+02 2.6053140943e+03 2.2500000000e+03 0.0000e+00 0.0000e+00
<mgrwt>
<rscale>  0 0.56578781E+04</rscale>
<asrwt>0</asrwt>
<pdfrwt beam="1">  1        2 0.54406079E+00 0.56578781E+04</pdfrwt>
<pdfrwt beam="2">  1       -2 0.34815532E+00 0.56578781E+04</pdfrwt>
<totfact> 0.84466780E-03</totfact>
</mgrwt>
</event>
<event>
 8      1 +1.2359593e-08 5.85826300e+03 7.81860800e-03 7.70822800e-02
        2 -1    0    0  501    0 +0.0000000000e+00 +0.0000000000e+00 +2.4188893736e+03 2.4188893736e+03 2.5500000000e-03 0.0000e+00 1.0000e+00
       -2 -1    0    0    0  501 -0.0000000000e+00 -0.0000000000e+00 -3.5470042399e+03 3.5470042399e+03 2.5500000000e-03 0.0000e+00 -1.0000e+00
  1000011  2    1    2    0    0 -4.2995240723e+02 +5.0478130437e+02 +1.2223668472e+03 2.6451443230e+03 2.2500987852e+03 3.2795e+01 0.0000e+00
 -1000011  2    1    2    0    0 +4.2995240723e+02 -5.0478130437e+02 -2.3504817134e+03 3.3207492905e+03 2.2500996261e+03 1.3391e+03 0.0000e+00
       11  1    3    3    0    0 +3.1570561362e-02 +8.8449862470e-02 -3.8557093889e-03 9.3995773907e-02 5.1100000000e-04 0.0000e+00 1.0000e+00
  1000022  1    3    3    0    0 -4.2998397779e+02 +5.0469285450e+02 +1.2223707029e+03 2.6450503273e+03 2.2500000000e+03 0.0000e+00 0.0000e+00
      -11  1    4    4    0    0 -5.0651919372e-02 -3.5354767739e-03 -1.8728569248e-01 1.9404717975e-01 5.1100000000e-04 0.0000e+00 -1.0000e+00
  1000022  1    4    4    0    0 +4.3000305915e+02 -5.0477776889e+02 -2.3502944277e+03 3.3205552433e+03 2.2500000000e+03 0.0000e+00 0.0000e+00
<mgrwt>
<rscale>  0 0.58582628E+04</rscale>
<asrwt>0</asrwt>
<pdfrwt beam="1">  1        2 0.37213683E+00 0.58582628E+04</pdfrwt>
<pdfrwt beam="2">  1       -2 0.54569296E+00 0.58582628E+04</pdfrwt>
<totfact> 0.24119245E-03</totfact>
</mgrwt>
</event>
<event>
 8      1 +1.2359593e-08 4.79140700e+03 7.81860800e-03 7.86151600e-02
       -2 -1    0    0    0  501 -0.0000000000e+00 +0.0000000000e+00 +1.7283280565e+03 1.7283280565e+03 2.5500000000e-03 0.0000e+00 -1.0000e+00
        2 -1    0    0  501    0 +0.0000000000e+00 -0.0000000000e+00 -3.3207795336e+03 3.3207795336e+03 2.5500000000e-03 0.0000e+00 1.0000e+00
  1000011  2    1    2    0    0 +2.2132605286e+02 +7.9043975987e+02 -8.5064867718e+02 2.5417180126e+03 2.2500993418e+03 2.4862e+03 0.0000e+00
 -1000011  2    1    2    0    0 -2.2132605286e+02 -7.9043975987e+02 -7.4180279990e+02 2.5073895775e+03 2.2501001897e+03 4.8097e+02 0.0000e+00
       11  1    3    3    0    0 +7.7592614295e-02 +7.2397212111e-02 -1.1302879144e-01 1.5504108601e-01 5.1100000000e-04 0.0000e+00 1.0000e+00
  1000022  1    3    3    0    0 +2.2124846025e+02 +7.9036736266e+02 -8.5053564839e+02 2.5415629715e+03 2.2500000000e+03 0.0000e+00 0.0000e+00
      -11  1    4    4    0    0 +8.0286079673e-02 +2.3612338634e-03 +5.3297411516e-03 8.0499047452e-02 5.1100000000e-04 0.0000e+00 -1.0000e+00
  1000022  1    4    4    0    0 -2.2140633894e+02 -7.9044212110e+02 -7.4180812964e+02 2.5073090785e+03 2.2500000000e+03 0.0000e+00 0.0000e+00
<mgrwt>
<rscale>  0 0.47914075E+04</rscale>
<asrwt>0</asrwt>
<pdfrwt beam="1">  1        2 0.51088916E+00 0.47914075E+04</pdfrwt>
<pdfrwt beam="2">  1       -2 0.26589662E+00 0.47914075E+04</pdfrwt>
<totfact> 0.40945004E-02</totfact>
</mgrwt>
</event>
<event>
 8      1 +1.2359593e-08 4.71648500e+03 7.81860800e-03 7.87379500e-02
       -2 -1    0    0    0  501 -0.0000000000e+00 +0.0000000000e+00 +3.8615740520e+03 3.8615740520e+03 2.5500000000e-03 0.0000e+00 -1.0000e+00
        2 -1    0    0  501    0 +0.0000000000e+00 -0.0000000000e+00 -1.4401662969e+03 1.4401662969e+03 2.5500000000e-03 0.0000e+00 1.0000e+00
  1000011  2    1    2    0    0 +6.2076787191e+02 +1.4182796978e+02 +8.6811869109e+02 2.4944056211e+03 2.2501025347e+03 2.2963e+02 0.0000e+00
 -1000011  2    1    2    0    0 -6.2076787191e+02 -1.4182796978e+02 +1.5532890640e+03 2.8073347279e+03 2.2501007609e+03 1.2625e+03 0.0000e+00
       11  1    3    3    0    0 -4.5532741056e-02 +7.3268892545e-03 -4.6404063182e-02 6.5425617418e-02 5.1100000000e-04 0.0000e+00 1.0000e+00
  1000022  1    3    3    0    0 +6.2081340465e+02 +1.4182064289e+02 +8.6816509515e+02 2.4943401954e+03 2.2500000000e+03 0.0000e+00 0.0000e+00
      -11  1    4    4    0    0 +1.5425599680e-02 -2.7161090507e-02 +1.6984643117e-01 1.7269552651e-01 5.1100000000e-04 0.0000e+00 -1.0000e+00
  1000022  1    4    4    0    0 -6.2078329751e+02 -1.4180080869e+02 +1.5531192176e+03 2.8071620324e+03 2.2500000000e+03 0.0000e+00 0.0000e+00
<mgrwt>
<rscale>  0 0.47164855E+04</rscale>
<asrwt>0</asrwt>
<pdfrwt beam="1">  1        2 0.22156405E+00 0.47164855E+04</pdfrwt>
<pdfrwt beam="2">  1       -2 0.59408831E+00 0.47164855E+04</pdfrwt>
<totfact> 0.55187971E-03</totfact>
</mgrwt>
</event>
<event>
 8      1 +1.2359593e-08 4.55793400e+03 7.81860800e-03 7.90057200e-02
       -2 -1    0    0    0  501 -0.0000000000e+00 +0.0000000000e+00 +1.9231652646e+03 1.9231652646e+03 2.5500000000e-03 0.0000e+00 -1.0000e+00
        2 -1    0    0  501    0 +0.0000000000e+00 -0.0000000000e+00 -2.7005952567e+03 2.7005952567e+03 2.5500000000e-03 0.0000e+00 1.0000e+00
  1000011  2    1    2    0    0 -2.5863955749e+02 +2.1298590425e+02 -2.5079123987e+02 2.2886901898e+03 2.2500998029e+03 1.4391e+03 0.0000e+00
 -1000011  2    1    2    0    0 +2.5863955749e+02 -2.1298590425e+02 -5.2663875224e+02 2.3350703314e+03 2.2500994781e+03 4.6524e+02 0.0000e+00
       11  1    3    3    0    0 -1.5991752139e-02 +5.0000094666e-02 -1.0332953469e-01 1.1590081441e-01 5.1100000000e-04 0.0000e+00 1.0000e+00
  1000022  1    3    3    0    0 -2.5862356574e+02 +2.1293590415e+02 -2.5068791034e+02 2.2885742890e+03 2.2500000000e+03 0.0000e+00 0.0000e+00
      -11  1    4    4    0    0 -4.5472748524e-02 -8.5758580245e-02 +6.1152401403e-03 9.7262336108e-02 5.1100000000e-04 0.0000e+00 -1.0000e+00
  1000022  1    4    4    0    0 +2.5868503024e+02 -2.1290014567e+02 -5.2664486748e+02 2.3349730691e+03 2.2500000000e+03 0.0000e+00 0.0000e+00
<mgrwt>
<rscale>  0 0.45579342E+04</rscale>
<asrwt>0</asrwt>
<pdfrwt beam="1">  1        2 0.41547619E+00 0.45579342E+04</pdfrwt>
<pdfrwt beam="2">  1       -2 0.29587158E+00 0.45579342E+04</pdfrwt>
<totfact> 0.67403738E-02</totfact>
</mgrwt>
</event>
<event>
 8      1 +1.2359593e-08 4.58723000e+03 7.81860800e-03 7.89554100e-02
       -2 -1    0    0    0  501 -0.0000000000e+00 +0.0000000000e+00 +1.9974220381e+03 1.9974220381e+03 2.5500000000e-03 0.0000e+00 1.0000e+00
        2 -1    0    0  501    0 +0.0000000000e+00 -0.0000000000e+00 -2.6337293781e+03 2.6337293781e+03 2.5500000000e-03 0.0000e+00 -1.0000e+00
  1000011  2    1    2    0    0 -3.9909410411e+02 +1.8443688059e+02 -3.8552407904e+02 2.3248359235e+03 2.2500978177e+03 1.9063e+03 0.0000e+00
 -1000011  2    1    2    0    0 +3.9909410411e+02 -1.8443688059e+02 -2.5078326098e+02 2.3063154927e+03 2.2500901850e+03 2.3788e+02 0.0000e+00
       11  1    3    3    0    0 -1.1357692843e-01 +2.6334592160e-02 -2.1295200906e-03 1.1661056940e-01 5.1100000000e-04 0.0000e+00 1.0000e+00
  1000022  1    3    3    0    0 -3.9898052718e+02 +1.8441054600e+02 -3.8552194952e+02 2.3247193130e+03 2.2500000000e+03 0.0000e+00 0.0000e+00
      -11  1    4    4    0    0 +1.0969456947e-02 +4.2223506686e-02 -8.5263964733e-02 9.5777647307e-02 5.1100000000e-04 0.0000e+00 -1.0000e+00
  1000022  1    4    4    0    0 +3.9908313465e+02 -1.8447910410e+02 -2.5069799702e+02 2.3062197150e+03 2.2500000000e+03 0.0000e+00 0.0000e+00
<mgrwt>
<rscale>  0 0.45872297E+04</rscale>
<asrwt>0</asrwt>
<pdfrwt beam="1">  1        2 0.40518913E+00 0.45872297E+04</pdfrwt>
<pdfrwt beam="2">  1       -2 0.30729570E+00 0.45872297E+04</pdfrwt>
<totfact> 0.62710640E-02</totfact>
</mgrwt>
</event>
<event>
 8      1 +1.2359593e-08 5.49508900e+03 7.81860800e-03 7.75636500e-02
        2 -1    0    0  501    0 +0.0000000000e+00 +0.0000000000e+00 +2.6388492996e+03 2.6388492996e+03 2.5500000000e-03 0.0000e+00 1.0000e+00
       -2 -1    0    0    0  501 -0.0000000000e+00 -0.0000000000e+00 -2.8607172783e+03 2.8607172783e+03 2.5500000000e-03 0.0000e+00 -1.0000e+00
  1000011  2    1    2    0    0 +1.6257005461e+02 -1.5545378430e+03 +9.6676933486e+01 2.7414071969e+03 2.2501000115e+03 2.2834e+02 0.0000e+00
 -1000011  2    1    2    0    0 -1.6257005461e+02 +1.5545378430e+03 -3.1854491214e+02 2.7581593810e+03 2.2501011936e+03 1.1057e+02 0.0000e+00
       11  1    3    3    0    0 +3.1238295347e-02 -1.7390013624e-01 +5.2827754034e-02 1.8441290835e-01 5.1100000000e-04 0.0000e+00 1.0000e+00
  1000022  1    3    3    0    0 +1.6253881631e+02 -1.5543639429e+03 +9.6624105732e+01 2.7412227840e+03 2.2500000000e+03 0.0000e+00 0.0000e+00
      -11  1    4    4    0    0 -3.6239495915e-02 +1.6746777305e-01 +3.5472904613e-02 1.7497812364e-01 5.1100000000e-04 0.0000e+00 -1.0000e+00
  1000022  1    4    4    0    0 -1.6253381511e+02 +1.5543703753e+03 -3.1858038505e+02 2.7579844028e+03 2.2500000000e+03 0.0000e+00 0.0000e+00
<mgrwt>
<rscale>  0 0.54950894E+04</rscale>
<asrwt>0</asrwt>
<pdfrwt beam="1">  1        2 0.40597681E+00 0.54950894E+04</pdfrwt>
<pdfrwt beam="2">  1       -2 0.44011035E+00 0.54950894E+04</pdfrwt>
<totfact> 0.81814163E-03</totfact>
</mgrwt>
</event>
<event>
 8      1 +1.2359593e-08 4.62350000e+03 7.81860800e-03 7.88936500e-02
       -2 -1    0    0    0  501 -0.0000000000e+00 +0.0000000000e+00 +1.4485967763e+03 1.4485967763e+03 2.5500000000e-03 0.0000e+00 -1.0000e+00
        2 -1    0    0  501    0 +0.0000000000e+00 -0.0000000000e+00 -3.6892164027e+03 3.6892164027e+03 2.5500000000e-03 0.0000e+00 1.0000e+00
  1000011  2    1    2    0    0 +2.5350480336e+02 -7.4553678131e+01 -1.6312017710e+03 2.7917015160e+03 2.2501011534e+03 1.1506e+02 0.0000e+00
 -1000011  2    1    2    0    0 -2.5350480336e+02 +7.4553678131e+01 -6.0941785538e+02 2.3461116631e+03 2.2501170807e+03 1.6136e+03 0.0000e+00
       11  1    3    3    0    0 +2.1138182371e-02 -1.0364636898e-01 -8.8600463202e-02 1.3798440210e-01 5.1100000000e-04 0.0000e+00 1.0000e+00
  1000022  1    3    3    0    0 +2.5348366517e+02 -7.4450031762e+01 -1.6311131706e+03 2.7915635316e+03 2.2500000000e+03 0.0000e+00 0.0000e+00
      -11  1    4    4    0    0 +3.5772579281e-02 +6.0204363703e-02 +6.2753306594e-02 9.4034467669e-02 5.1100000000e-04 0.0000e+00 -1.0000e+00
  1000022  1    4    4    0    0 -2.5354057594e+02 +7.4493473767e+01 -6.0948060869e+02 2.3460176286e+03 2.2500000000e+03 0.0000e+00 0.0000e+00
<mgrwt>
<rscale>  0 0.46234995E+04</rscale>
<asrwt>0</asrwt>
<pdfrwt beam="1">  1        2 0.56757175E+00 0.46234995E+04</pdfrwt>
<pdfrwt beam="2">  1       -2 0.22286104E+00 0.46234995E+04</pdfrwt>
<totfact> 0.42165768E-02</totfact>
</mgrwt>
</event>
<event>
 8      1 +1.2359593e-08 5.62849700e+03 7.81860800e-03 7.73825100e-02
       -1 -1    0    0    0  501 -0.0000000000e+00 +0.0000000000e+00 +2.5258774575e+03 2.5258774575e+03 5.0400000000e-03 0.0000e+00 1.0000e+00
        1 -1    0    0  501    0 +0.0000000000e+00 -0.0000000000e+00 -3.1355415064e+03 3.1355415064e+03 5.0400000000e-03 0.0000e+00 -1.0000e+00
  1000011  2    1    2    0    0 +1.7560728609e+02 +1.6511724121e+03 +1.2985450445e+01 2.7964843867e+03 2.2500995644e+03 1.1223e+03 0.0000e+00
 -1000011  2    1    2    0    0 -1.7560728609e+02 -1.6511724121e+03 -6.2264949939e+02 2.8649345772e+03 2.2500998820e+03 1.3824e+03 0.0000e+00
       11  1    3    3    0    0 -3.9518508210e-02 -3.2582781224e-02 -2.7761172289e-02 5.8260565616e-02 5.1100000000e-04 0.0000e+00 1.0000e+00
  1000022  1    3    3    0    0 +1.7564680459e+02 +1.6512049949e+03 +1.3013211618e+01 2.7964261261e+03 2.2500000000e+03 0.0000e+00 0.0000e+00
      -11  1    4    4    0    0 -8.6042417598e-02 -2.2051206087e-02 -6.6292528280e-02 1.1083552471e-01 5.1100000000e-04 0.0000e+00 -1.0000e+00
  1000022  1    4    4    0    0 -1.7552124367e+02 -1.6511503609e+03 -6.2258320686e+02 2.8648237417e+03 2.2500000000e+03 0.0000e+00 0.0000e+00
<mgrwt>
<rscale>  0 0.56284966E+04</rscale>
<asrwt>0</asrwt>
<pdfrwt beam="1">  1        1 0.48239100E+00 0.56284966E+04</pdfrwt>
<pdfrwt beam="2">  1       -1 0.38859653E+00 0.56284966E+04</pdfrwt>
<totfact> 0.27932765E-03</totfact>
</mgrwt>
</event>
<event>
 8      1 +1.2359593e-08 4.88477400e+03 7.81860800e-03 7.84653200e-02
        2 -1    0    0  501    0 +0.0000000000e+00 +0.0000000000e+00 +4.5924820592e+03 4.5924820592e+03 2.5500000000e-03 0.0000e+00 -1.0000e+00
       -2 -1    0    0    0  501 -0.0000000000e+00 -0.0000000000e+00 -1.2989174659e+03 1.2989174659e+03 2.5500000000e-03 0.0000e+00 1.0000e+00
  1000011  2    1    2    0    0 +1.8997696533e+02 -3.2261489321e+02 +2.6996942181e+03 3.5343273804e+03 2.2500998964e+03 1.1559e+02 0.0000e+00
 -1000011  2    1    2    0    0 -1.8997696533e+02 +3.2261489321e+02 +5.9387037525e+02 2.3570721447e+03 2.2500967659e+03 6.5527e+02 0.0000e+00
       11  1    3    3    0    0 -3.3491893134e-02 +6.9954390115e-02 +4.4564052375e-02 8.9451323305e-02 5.1100000000e-04 0.0000e+00 1.0000e+00
  1000022  1    3    3    0    0 +1.9001045722e+02 -3.2268484760e+02 +2.6996496540e+03 3.5342379290e+03 2.2500000000e+03 0.0000e+00 0.0000e+00
      -11  1    4    4    0    0 -1.4446897395e-02 +1.0673978400e-01 +5.9852849817e-02 1.2322629043e-01 5.1100000000e-04 0.0000e+00 -1.0000e+00
  1000022  1    4    4    0    0 -1.8996251843e+02 +3.2250815342e+02 +5.9381052240e+02 2.3569489184e+03 2.2500000000e+03 0.0000e+00 0.0000e+00
<mgrwt>
<rscale>  0 0.48847744E+04</rscale>
<asrwt>0</asrwt>
<pdfrwt beam="1">  1        2 0.70653572E+00 0.48847744E+04</pdfrwt>
<pdfrwt beam="2">  1       -2 0.19983345E+00 0.48847744E+04</pdfrwt>
<totfact> 0.96405836E-03</totfact>
</mgrwt>
</event>
<event>
 8      1 +1.2359593e-08 4.59490800e+03 7.81860800e-03 7.89422900e-02
       -2 -1    0    0    0  501 -0.0000000000e+00 +0.0000000000e+00 +3.9633800321e+03 3.9633800321e+03 2.5500000000e-03 0.0000e+00 -1.0000e+00
        2 -1    0    0  501    0 +0.0000000000e+00 -0.0000000000e+00 -1.3317662555e+03 1.3317662555e+03 2.5500000000e-03 0.0000e+00 1.0000e+00
  1000011  2    1    2    0    0 -4.5033455083e+02 -1.1137663757e+02 +1.3297117517e+03 2.6544825864e+03 2.2500974414e+03 2.5174e+01 0.0000e+00
 -1000011  2    1    2    0    0 +4.5033455083e+02 +1.1137663757e+02 +1.3019020249e+03 2.6406637013e+03 2.2500999839e+03 2.5409e+03 0.0000e+00
       11  1    3    3    0    0 -9.6207459011e-02 -6.0006539872e-02 +3.3581228849e-02 1.1825658318e-01 5.1100000000e-04 0.0000e+00 1.0000e+00
  1000022  1    3    3    0    0 -4.5023834338e+02 -1.1131663103e+02 +1.3296781705e+03 2.6543643298e+03 2.2500000000e+03 0.0000e+00 0.0000e+00
      -11  1    4    4    0    0 +1.1325563615e-02 -5.9375921889e-02 +1.4269993000e-01 1.5497515810e-01 5.1100000000e-04 0.0000e+00 -1.0000e+00
  1000022  1    4    4    0    0 +4.5032322527e+02 +1.1143601349e+02 +1.3017593250e+03 2.6405087261e+03 2.2500000000e+03 0.0000e+00 0.0000e+00
<mgrwt>
<rscale>  0 0.45949084E+04</rscale>
<asrwt>0</asrwt>
<pdfrwt beam="1">  1        2 0.20488712E+00 0.45949084E+04</pdfrwt>
<pdfrwt beam="2">  1       -2 0.60975076E+00 0.45949084E+04</pdfrwt>
<totfact> 0.55780247E-03</totfact>
</mgrwt>
</event>
<event>
 8      1 +1.2359593e-08 4.87815600e+03 7.81860800e-03 7.84758300e-02
       -2 -1    0    0    0  501 -0.0000000000e+00 +0.0000000000e+00 +2.7631786611e+03 2.7631786611e+03 2.5500000000e-03 0.0000e+00 -1.0000e+00
        2 -1    0    0  501    0 +0.0000000000e+00 -0.0000000000e+00 -2.1529916936e+03 2.1529916936e+03 2.5500000000e-03 0.0000e+00 1.0000e+00
  1000011  2    1    2    0    0 +1.8199606019e+02 +8.9920003235e+02 +5.1759655679e+02 2.4844599759e+03 2.2501004227e+03 3.5679e+03 0.0000e+00
 -1000011  2    1    2    0    0 -1.8199606019e+02 -8.9920003235e+02 +9.2590410697e+01 2.4317103787e+03 2.2501020239e+03 1.5044e+03 0.0000e+00
       11  1    3    3    0    0 -2.2363394457e-02 -3.4686470085e-02 -5.1528250920e-02 6.6020403401e-02 5.1100000000e-04 0.0000e+00 1.0000e+00
  1000022  1    3    3    0    0 +1.8201842359e+02 +8.9923471882e+02 +5.1764808504e+02 2.4843939555e+03 2.2500000000e+03 0.0000e+00 0.0000e+00
      -11  1    4    4    0    0 -3.4475122186e-02 -1.2733535321e-01 +6.3697797934e-02 1.4649401564e-01 5.1100000000e-04 0.0000e+00 -1.0000e+00
  1000022  1    4    4    0    0 -1.8196158507e+02 -8.9907269700e+02 +9.2526712899e+01 2.4315638847e+03 2.2500000000e+03 0.0000e+00 0.0000e+00
<mgrwt>
<rscale>  0 0.48781557E+04</rscale>
<asrwt>0</asrwt>
<pdfrwt beam="1">  1        2 0.33122949E+00 0.48781557E+04</pdfrwt>
<pdfrwt beam="2">  1       -2 0.42510441E+00 0.48781557E+04</pdfrwt>
<totfact> 0.20490838E-02</totfact>
</mgrwt>
</event>
<event>
 8      1 +1.2359593e-08 4.53062400e+03 7.81860800e-03 7.90529700e-02
       -2 -1    0    0    0  501 -0.0000000000e+00 +0.0000000000e+00 +3.2360843020e+03 3.2360843020e+03 2.5500000000e-03 0.0000e+00 -1.0000e+00
        2 -1    0    0  501    0 +0.0000000000e+00 -0.0000000000e+00 -1.5857555071e+03 1.5857555071e+03 2.5500000000e-03 0.0000e+00 1.0000e+00
  1000011  2    1    2    0    0 -1.2001153055e+02 -2.0820304801e+02 +9.3641642180e+02 2.4489947805e+03 2.2500996518e+03 1.0518e+02 0.0000e+00
 -1000011  2    1    2    0    0 +1.2001153055e+02 +2.0820304801e+02 +7.1391237305e+02 2.3728450286e+03 2.2501047479e+03 2.1622e+02 0.0000e+00
       11  1    3    3    0    0 +4.0735922215e-03 +4.4334673511e-02 +1.2979111580e-01 1.3721571357e-01 5.1100000000e-04 0.0000e+00 1.0000e+00
  1000022  1    3    3    0    0 -1.2001560414e+02 -2.0824738268e+02 +9.3628663068e+02 2.4488575647e+03 2.2500000000e+03 0.0000e+00 0.0000e+00
      -11  1    4    4    0    0 +2.0431850234e-02 +4.9955436012e-02 +1.3495394498e-01 1.4534728843e-01 5.1100000000e-04 0.0000e+00 -1.0000e+00
  1000022  1    4    4    0    0 +1.1999109870e+02 +2.0815309257e+02 +7.1377741911e+02 2.3726996813e+03 2.2500000000e+03 0.0000e+00 0.0000e+00
<mgrwt>
<rscale>  0 0.45306240E+04</rscale>
<asrwt>0</asrwt>
<pdfrwt beam="1">  1        2 0.24396239E+00 0.45306240E+04</pdfrwt>
<pdfrwt beam="2">  1       -2 0.49785912E+00 0.45306240E+04</pdfrwt>
<totfact> 0.14661259E-02</totfact>
</mgrwt>
</event>
<event>
 8      1 +1.2359593e-08 4.72468000e+03 7.81860800e-03 7.87244100e-02
       -2 -1    0    0    0  501 -0.0000000000e+00 +0.0000000000e+00 +1.7640643860e+03 1.7640643860e+03 2.5500000000e-03 0.0000e+00 -1.0000e+00
        2 -1    0    0  501    0 +0.0000000000e+00 -0.0000000000e+00 -3.1635182166e+03 3.1635182166e+03 2.5500000000e-03 0.0000e+00 1.0000e+00
  1000011  2    1    2    0    0 -6.3780563675e+02 +1.5017311062e+02 -3.8973325859e+02 2.3757503165e+03 2.2500999000e+03 1.4862e+03 0.0000e+00
 -1000011  2    1    2    0    0 +6.3780563675e+02 -1.5017311062e+02 -1.0097205721e+03 2.5518322862e+03 2.2501031953e+03 1.5980e+03 0.0000e+00
       11  1    3    3    0    0 -5.9381719670e-02 -6.5617640321e-03 -1.1418796347e-01 1.2887357074e-01 5.1100000000e-04 0.0000e+00 1.0000e+00
  1000022  1    3    3    0    0 -6.3774625503e+02 +1.5017967239e+02 -3.8961907063e+02 2.3756214429e+03 2.2500000000e+03 0.0000e+00 0.0000e+00
      -11  1    4    4    0    0 +8.7249396775e-02 -8.9749501446e-02 -2.3399396054e-02 1.2733900680e-01 5.1100000000e-04 0.0000e+00 -1.0000e+00
  1000022  1    4    4    0    0 +6.3771838736e+02 -1.5008336112e+02 -1.0096971727e+03 2.5517049472e+03 2.2500000000e+03 0.0000e+00 0.0000e+00
<mgrwt>
<rscale>  0 0.47246798E+04</rscale>
<asrwt>0</asrwt>
<pdfrwt beam="1">  1        2 0.48669511E+00 0.47246798E+04</pdfrwt>
<pdfrwt beam="2">  1       -2 0.27139452E+00 0.47246798E+04</pdfrwt>
<totfact> 0.48392079E-02</totfact>
</mgrwt>
</event>
<event>
 8      1 +1.2359593e-08 5.36012100e+03 7.81860800e-03 7.77523500e-02
        2 -1    0    0  501    0 +0.0000000000e+00 +0.0000000000e+00 +2.7536372345e+03 2.7536372345e+03 2.5500000000e-03 0.0000e+00 1.0000e+00
       -2 -1    0    0    0  501 -0.0000000000e+00 -0.0000000000e+00 -2.6084501137e+03 2.6084501137e+03 2.5500000000e-03 0.0000e+00 -1.0000e+00
  1000011  2    1    2    0    0 -1.4106789033e+03 +1.1047239368e+02 -2.7040362883e+02 2.6717568330e+03 2.2500994053e+03 2.7629e+02 0.0000e+00
 -1000011  2    1    2    0    0 +1.4106789033e+03 -1.1047239368e+02 +4.1559074970e+02 2.6903305153e+03 2.2500985516e+03 8.8706e+02 0.0000e+00
       11  1    3    3    0    0 -1.0828821002e-01 +7.2355651583e-02 +4.8497399893e-02 1.3897458561e-01 5.1100000000e-04 0.0000e+00 1.0000e+00
  1000022  1    3    3    0    0 -1.4105706151e+03 +1.1040003803e+02 -2.7045212623e+02 2.6716178584e+03 2.2500000000e+03 0.0000e+00 0.0000e+00
      -11  1    4    4    0    0 +8.3414788251e-03 -2.2434149205e-02 -7.2652644294e-02 7.6495352214e-02 5.1100000000e-04 0.0000e+00 -1.0000e+00
  1000022  1    4    4    0    0 +1.4106705618e+03 -1.1044995953e+02 +4.1566340234e+02 2.6902540199e+03 2.2500000000e+03 0.0000e+00 0.0000e+00
<mgrwt>
<rscale>  0 0.53601214E+04</rscale>
<asrwt>0</asrwt>
<pdfrwt beam="1">  1        2 0.42363650E+00 0.53601214E+04</pdfrwt>
<pdfrwt beam="2">  1       -2 0.40130002E+00 0.53601214E+04</pdfrwt>
<totfact> 0.12712520E-02</totfact>
</mgrwt>
</event>
<event>
 8      1 +1.2359593e-08 5.23666400e+03 7.81860800e-03 7.79300200e-02
       -2 -1    0    0    0  501 -0.0000000000e+00 +0.0000000000e+00 +1.5962601504e+03 1.5962601504e+03 2.5500000000e-03 0.0000e+00 -1.0000e+00
        2 -1    0    0  501    0 +0.0000000000e+00 -0.0000000000e+00 -4.2948276588e+03 4.2948276588e+03 2.5500000000e-03 0.0000e+00 1.0000e+00
  1000011  2    1    2    0    0 +6.1957948447e+01 -8.0049866420e+02 -1.4389880297e+02 2.3933855449e+03 2.2501001316e+03 2.2965e+02 0.0000e+00
 -1000011  2    1    2    0    0 -6.1957948447e+01 +8.0049866420e+02 -2.5546687055e+03 3.4977022643e+03 2.2501004502e+03 1.6491e+02 0.0000e+00
       11  1    3    3    0    0 -1.8768922394e-02 +3.9267661837e-02 -7.2891606219e-02 8.4897991855e-02 5.1100000000e-04 0.0000e+00 1.0000e+00
  1000022  1    3    3    0    0 +6.1976717369e+01 -8.0053793186e+02 -1.4382591136e+02 2.3933006469e+03 2.2500000000e+03 0.0000e+00 0.0000e+00
      -11  1    4    4    0    0 -4.7318761310e-02 +3.1505833717e-02 -2.4542123804e-01 2.5191968495e-01 5.1100000000e-04 0.0000e+00 -1.0000e+00
  1000022  1    4    4    0    0 -6.1910629686e+01 +8.0046715836e+02 -2.5544232843e+03 3.4974503446e+03 2.2500000000e+03 0.0000e+00 0.0000e+00
<mgrwt>
<rscale>  0 0.52366639E+04</rscale>
<asrwt>0</asrwt>
<pdfrwt beam="1">  1        2 0.66074271E+00 0.52366639E+04</pdfrwt>
<pdfrwt beam="2">  1       -2 0.24557849E+00 0.52366639E+04</pdfrwt>
<totfact> 0.93015022E-03</totfact>
</mgrwt>
</event>
<event>
 8      1 +1.2359593e-08 4.84955800e+03 7.81860800e-03 7.85214300e-02
       -2 -1    0    0    0  501 -0.0000000000e+00 +0.0000000000e+00 +3.3305745905e+03 3.3305745905e+03 2.5500000000e-03 0.0000e+00 -1.0000e+00
        2 -1    0    0  501    0 +0.0000000000e+00 -0.0000000000e+00 -1.7653269570e+03 1.7653269570e+03 2.5500000000e-03 0.0000e+00 1.0000e+00
  1000011  2    1    2    0    0 +4.2087412100e+02 +8.0556354104e+01 +1.6186424194e+03 2.8047399162e+03 2.2500974120e+03 4.3092e+01 0.0000e+00
 -1000011  2    1    2    0    0 -4.2087412100e+02 -8.0556354104e+01 -5.3394785937e+01 2.2911616313e+03 2.2500991680e+03 1.2268e+01 0.0000e+00
       11  1    3    3    0    0 -1.1557436015e-02 +8.9358310112e-02 +1.1135369742e-01 1.4324241155e-01 5.1100000000e-04 0.0000e+00 1.0000e+00
  1000022  1    3    3    0    0 +4.2088567844e+02 +8.0466995794e+01 +1.6185310657e+03 2.8045966737e+03 2.2500000000e+03 0.0000e+00 0.0000e+00
      -11  1    4    4    0    0 -6.5493586235e-02 +8.3767527558e-02 -8.5033731015e-03 1.0667228657e-01 5.1100000000e-04 0.0000e+00 -1.0000e+00
  1000022  1    4    4    0    0 -4.2080862742e+02 -8.0640121631e+01 -5.3386282564e+01 2.2910549590e+03 2.2500000000e+03 0.0000e+00 0.0000e+00
<mgrwt>
<rscale>  0 0.48495580E+04</rscale>
<asrwt>0</asrwt>
<pdfrwt beam="1">  1        2 0.27158876E+00 0.48495580E+04</pdfrwt>
<pdfrwt beam="2">  1       -2 0.51239609E+00 0.48495580E+04</pdfrwt>
<totfact> 0.92725913E-03</totfact>
</mgrwt>
</event>
<event>
 8      1 +1.2359593e-08 4.84483100e+03 7.81860800e-03 7.85290000e-02
       -2 -1    0    0    0  501 -0.0000000000e+00 +0.0000000000e+00 +2.0202673307e+03 2.0202673307e+03 2.5500000000e-03 0.0000e+00 -1.0000e+00
        2 -1    0    0  501    0 +0.0000000000e+00 -0.0000000000e+00 -2.9046143297e+03 2.9046143297e+03 2.5500000000e-03 0.0000e+00 1.0000e+00
  1000011  2    1    2    0    0 -5.2804654060e+02 -3.3608836102e+00 -1.1796315809e+03 2.5948644509e+03 2.2500991994e+03 2.2388e+02 0.0000e+00
 -1000011  2    1    2    0    0 +5.2804654060e+02 +3.3608836102e+00 +2.9528458186e+02 2.3300172095e+03 2.2500983907e+03 2.2688e+03 0.0000e+00
       11  1    3    3    0    0 -4.8260578244e-02 +7.0316036288e-02 -1.2833279540e-01 1.5408762285e-01 5.1100000000e-04 0.0000e+00 1.0000e+00
  1000022  1    3    3    0    0 -5.2799828002e+02 -3.4311996465e+00 -1.1795032481e+03 2.5947103632e+03 2.2500000000e+03 0.0000e+00 0.0000e+00
      -11  1    4    4    0    0 +7.3408912685e-02 +6.8147868032e-02 +6.6371241270e-02 1.2015990500e-01 5.1100000000e-04 0.0000e+00 -1.0000e+00
  1000022  1    4    4    0    0 +5.2797313169e+02 +3.2927357422e+00 +2.9521821062e+02 2.3298970496e+03 2.2500000000e+03 0.0000e+00 0.0000e+00
<mgrwt>
<rscale>  0 0.48448312E+04</rscale>
<asrwt>0</asrwt>
<pdfrwt beam="1">  1        2 0.44686374E+00 0.48448312E+04</pdfrwt>
<pdfrwt beam="2">  1       -2 0.31081036E+00 0.48448312E+04</pdfrwt>
<totfact> 0.40118368E-02</totfact>
</mgrwt>
</event>
<event>
 8      1 +1.2359593e-08 4.67387200e+03 7.81860800e-03 7.88088400e-02
        1 -1    0    0  501    0 +0.0000000000e+00 +0.0000000000e+00 +2.2483157612e+03 2.2483157612e+03 5.0400000000e-03 0.0000e+00 -1.0000e+00
       -1 -1    0    0    0  501 -0.0000000000e+00 -0.0000000000e+00 -2.4290495746e+03 2.4290495746e+03 5.0400000000e-03 0.0000e+00 1.0000e+00
  1000011  2    1    2    0    0 +5.8117085657e+02 +8.7184709575e+00 -3.3647476825e+02 2.3481940673e+03 2.2501032269e+03 2.1215e+03 0.0000e+00
 -1000011  2    1    2    0    0 -5.8117085657e+02 -8.7184709575e+00 +1.5574095487e+02 2.3291712685e+03 2.2500995482e+03 2.0536e+02 0.0000e+00
       11  1    3    3    0    0 +8.8659672770e-02 +8.4291264654e-02 -1.2799882635e-02 1.2300265318e-01 5.1100000000e-04 0.0000e+00 1.0000e+00
  1000022  1    3    3    0    0 +5.8108219690e+02 +8.6341796929e+00 -3.3646196837e+02 2.3480710647e+03 2.2500000000e+03 0.0000e+00 0.0000e+00
      -11  1    4    4    0    0 +1.9042292781e-02 +5.2680437321e-02 +7.8538265567e-02 9.6469463978e-02 5.1100000000e-04 0.0000e+00 -1.0000e+00
  1000022  1    4    4    0    0 -5.8118989887e+02 -8.7711513948e+00 +1.5566241660e+02 2.3290747991e+03 2.2500000000e+03 0.0000e+00 0.0000e+00
<mgrwt>
<rscale>  0 0.46738722E+04</rscale>
<asrwt>0</asrwt>
<pdfrwt beam="1">  1        1 0.34589473E+00 0.46738722E+04</pdfrwt>
<pdfrwt beam="2">  1       -1 0.37369994E+00 0.46738722E+04</pdfrwt>
<totfact> 0.16141748E-02</totfact>
</mgrwt>
</event>
<event>
 8      1 +1.2359593e-08 5.85855500e+03 7.81860800e-03 7.70819100e-02
       -2 -1    0    0    0  501 -0.0000000000e+00 +0.0000000000e+00 +2.0788865083e+03 2.0788865083e+03 2.5500000000e-03 0.0000e+00 -1.0000e+00
        2 -1    0    0  501    0 +0.0000000000e+00 -0.0000000000e+00 -4.1275294467e+03 4.1275294467e+03 2.5500000000e-03 0.0000e+00 1.0000e+00
  1000011  2    1    2    0    0 +1.3711421804e+03 +2.6830763689e+02 +3.0124274268e+02 2.6656602289e+03 2.2501060862e+03 2.2567e+03 0.0000e+00
 -1000011  2    1    2    0    0 -1.3711421804e+03 -2.6830763689e+02 -2.3498856811e+03 3.5407557262e+03 2.2501041158e+03 2.1154e+03 0.0000e+00
       11  1    3    3    0    0 -3.6258686148e-02 +3.8342560076e-04 -5.3771766873e-02 6.4857559442e-02 5.1100000000e-04 0.0000e+00 1.0000e+00
  1000022  1    3    3    0    0 +1.3711784390e+03 +2.6830725347e+02 +3.0129651445e+02 2.6655953713e+03 2.2500000000e+03 0.0000e+00 0.0000e+00
      -11  1    4    4    0    0 -1.5008089180e-01 -2.8999599265e-02 -5.3395962029e-02 1.6191553520e-01 5.1100000000e-04 0.0000e+00 -1.0000e+00
  1000022  1    4    4    0    0 -1.3709920995e+03 -2.6827863730e+02 -2.3498322851e+03 3.5405938107e+03 2.2500000000e+03 0.0000e+00 0.0000e+00
<mgrwt>
<rscale>  0 0.58585545E+04</rscale>
<asrwt>0</asrwt>
<pdfrwt beam="1">  1        2 0.63500453E+00 0.58585545E+04</pdfrwt>
<pdfrwt beam="2">  1       -2 0.31982869E+00 0.58585545E+04</pdfrwt>
<totfact> 0.43532598E-03</totfact>
</mgrwt>
</event>
<event>
 8      1 +1.2359593e-08 4.91961000e+03 7.81860800e-03 7.84102900e-02
        2 -1    0    0  501    0 +0.0000000000e+00 +0.0000000000e+00 +3.0844115737e+03 3.0844115737e+03 2.5500000000e-03 0.0000e+00 1.0000e+00
       -2 -1    0    0    0  501 -0.0000000000e+00 -0.0000000000e+00 -1.9616835785e+03 1.9616835785e+03 2.5500000000e-03 0.0000e+00 -1.0000e+00
  1000011  2    1    2    0    0 -2.5648543799e+02 -2.4671360762e+02 +1.5131434553e+03 2.7348134523e+03 2.2500998019e+03 3.9621e+02 0.0000e+00
 -1000011  2    1    2    0    0 +2.5648543799e+02 +2.4671360762e+02 -3.9041546007e+02 2.3112816999e+03 2.2500992158e+03 1.0300e+03 0.0000e+00
       11  1    3    3    0    0 -6.5852048995e-02 +4.7928603016e-02 +1.3824103165e-01 1.6045088590e-01 5.1100000000e-04 0.0000e+00 1.0000e+00
  1000022  1    3    3    0    0 -2.5641958594e+02 -2.4676153623e+02 +1.5130052143e+03 2.7346530014e+03 2.2500000000e+03 0.0000e+00 0.0000e+00
      -11  1    4    4    0    0 -1.4537179009e-02 +6.2845299049e-02 -9.9364197786e-02 1.1846672763e-01 5.1100000000e-04 0.0000e+00 -1.0000e+00
  1000022  1    4    4    0    0 +2.5649997517e+02 +2.4665076232e+02 -3.9031609587e+02 2.3111632332e+03 2.2500000000e+03 0.0000e+00 0.0000e+00
<mgrwt>
<rscale>  0 0.49196096E+04</rscale>
<asrwt>0</asrwt>
<pdfrwt beam="1">  1        2 0.47452486E+00 0.49196096E+04</pdfrwt>
<pdfrwt beam="2">  1       -2 0.30179747E+00 0.49196096E+04</pdfrwt>
<totfact> 0.34935491E-02</totfact>
</mgrwt>
</event>
<event>
 8      1 +1.2359593e-08 4.67897200e+03 7.81860800e-03 7.88003200e-02
       -2 -1    0    0    0  501 -0.0000000000e+00 +0.0000000000e+00 +2.2205964085e+03 2.2205964085e+03 2.5500000000e-03 0.0000e+00 -1.0000e+00
        2 -1    0    0  501    0 +0.0000000000e+00 -0.0000000000e+00 -2.4647406485e+03 2.4647406485e+03 2.5500000000e-03 0.0000e+00 1.0000e+00
  1000011  2    1    2    0    0 +1.0159480174e+01 -2.1329585328e+02 +4.8260031053e+02 2.3111581272e+03 2.2501001074e+03 2.8508e+03 0.0000e+00
 -1000011  2    1    2    0    0 -1.0159480174e+01 +2.1329585328e+02 -7.2674455053e+02 2.3741789298e+03 2.2501043560e+03 1.8513e+01 0.0000e+00
       11  1    3    3    0    0 -5.0896877919e-02 +6.0516277652e-02 -3.1422657941e-02 8.5090285212e-02 5.1100000000e-04 0.0000e+00 1.0000e+00
  1000022  1    3    3    0    0 +1.0210377052e+01 -2.1335636956e+02 +4.8263173318e+02 2.3110730369e+03 2.2500000000e+03 0.0000e+00 0.0000e+00
      -11  1    4    4    0    0 +8.8430522488e-02 +3.7205670072e-02 -8.4170901229e-02 1.2762923108e-01 5.1100000000e-04 0.0000e+00 -1.0000e+00
  1000022  1    4    4    0    0 -1.0247910697e+01 +2.1325864761e+02 -7.2666037963e+02 2.3740513006e+03 2.2500000000e+03 0.0000e+00 0.0000e+00
<mgrwt>
<rscale>  0 0.46789718E+04</rscale>
<asrwt>0</asrwt>
<pdfrwt beam="1">  1        2 0.37919087E+00 0.46789718E+04</pdfrwt>
<pdfrwt beam="2">  1       -2 0.34163022E+00 0.46789718E+04</pdfrwt>
<totfact> 0.47859089E-02</totfact>
</mgrwt>
</event>
<event>
 8      1 +1.2359593e-08 6.14164900e+03 7.81860800e-03 7.67308300e-02
       -2 -1    0    0    0  501 -0.0000000000e+00 +0.0000000000e+00 +3.1669890354e+03 3.1669890354e+03 2.5500000000e-03 0.0000e+00 -1.0000e+00
        2 -1    0    0  501    0 +0.0000000000e+00 -0.0000000000e+00 -2.9775801112e+03 2.9775801112e+03 2.5500000000e-03 0.0000e+00 1.0000e+00
  1000011  2    1    2    0    0 -1.0889340713e+02 +1.1590230795e+03 -1.6415756999e+03 3.0187607889e+03 2.2501008086e+03 4.5199e+02 0.0000e+00
 -1000011  2    1    2    0    0 +1.0889340713e+02 -1.1590230795e+03 +1.8309846241e+03 3.1258083577e+03 2.2501068691e+03 1.2075e+02 0.0000e+00
       11  1    3    3    0    0 -9.8534066550e-02 +6.4770363891e-02 -1.2330753061e-01 1.7061409662e-01 5.1100000000e-04 0.0000e+00 1.0000e+00
  1000022  1    3    3    0    0 -1.0879487306e+02 +1.1589583092e+03 -1.6414523924e+03 3.0185901748e+03 2.2500000000e+03 0.0000e+00 0.0000e+00
      -11  1    4    4    0    0 -1.7225945127e-02 +6.3374554860e-03 +1.7628588244e-01 1.7723958162e-01 5.1100000000e-04 0.0000e+00 -1.0000e+00
  1000022  1    4    4    0    0 +1.0891063307e+02 -1.1590294170e+03 +1.8308083382e+03 3.1256311182e+03 2.2500000000e+03 0.0000e+00 0.0000e+00
<mgrwt>
<rscale>  0 0.61416491E+04</rscale>
<asrwt>0</asrwt>
<pdfrwt beam="1">  1        2 0.45808925E+00 0.61416491E+04</pdfrwt>
<pdfrwt beam="2">  1       -2 0.48722908E+00 0.61416491E+04</pdfrwt>
<totfact> 0.23993978E-03</totfact>
</mgrwt>
</event>
<event>
 8      1 +1.2359593e-08 7.53778500e+03 7.81860800e-03 7.52438100e-02
       -2 -1    0    0    0  501 -0.0000000000e+00 +0.0000000000e+00 +4.8260640777e+03 4.8260640777e+03 2.5500000000e-03 0.0000e+00 -1.0000e+00
        2 -1    0    0  501    0 +0.0000000000e+00 -0.0000000000e+00 -2.9432993609e+03 2.9432993610e+03 2.5500000000e-03 0.0000e+00 1.0000e+00
  1000011  2    1    2    0    0 +2.9710838891e+03 -3.8452442224e+02 +1.3618301514e+03 3.9865700856e+03 2.2501024819e+03 8.7755e+02 0.0000e+00
 -1000011  2    1    2    0    0 -2.9710838891e+03 +3.8452442224e+02 +5.2093456526e+02 3.7827933530e+03 2.2501009362e+03 2.3251e+03 0.0000e+00
       11  1    3    3    0    0 +2.6704251787e-01 -8.1149993957e-02 +6.2292320397e-02 2.8596786895e-01 5.1100000000e-04 0.0000e+00 1.0000e+00
  1000022  1    3    3    0    0 +2.9708168465e+03 -3.8444327225e+02 +1.3617678591e+03 3.9862841177e+03 2.2500000000e+03 0.0000e+00 0.0000e+00
      -11  1    4    4    0    0 -2.3055148007e-01 +8.5523031950e-02 +9.1674857670e-02 2.6243611493e-01 5.1100000000e-04 0.0000e+00 -1.0000e+00
  1000022  1    4    4    0    0 -2.9708533376e+03 +3.8443889921e+02 +5.2084289040e+02 3.7825309169e+03 2.2500000000e+03 0.0000e+00 0.0000e+00
<mgrwt>
<rscale>  0 0.75377852E+04</rscale>
<asrwt>0</asrwt>
<pdfrwt beam="1">  1        2 0.45281529E+00 0.75377852E+04</pdfrwt>
<pdfrwt beam="2">  1       -2 0.74247138E+00 0.75377852E+04</pdfrwt>
<totfact> 0.17915250E-04</totfact>
</mgrwt>
</event>
<event>
 8      1 +1.2359593e-08 6.45767000e+03 7.81860800e-03 7.63610900e-02
        2 -1    0    0  501    0 +0.0000000000e+00 +0.0000000000e+00 +2.3529285638e+03 2.3529285638e+03 2.5500000000e-03 0.0000e+00 1.0000e+00
       -2 -1    0    0    0  501 -0.0000000000e+00 -0.0000000000e+00 -4.4308088329e+03 4.4308088329e+03 2.5500000000e-03 0.0000e+00 -1.0000e+00
  1000011  2    1    2    0    0 +1.8459674222e+03 -1.3981542476e+03 -1.0370285877e+03 3.3912823411e+03 2.2500970205e+03 1.0571e+03 0.0000e+00
 -1000011  2    1    2    0    0 -1.8459674222e+03 +1.3981542476e+03 -1.0408516815e+03 3.3924550556e+03 2.2500995661e+03 1.1393e+02 0.0000e+00
       11  1    3    3    0    0 +1.7753759937e-01 -1.5522960480e-01 -5.9804714079e-02 2.4329548722e-01 5.1100000000e-04 0.0000e+00 1.0000e+00
  1000022  1    3    3    0    0 +1.8457898846e+03 -1.3979990179e+03 -1.0369687830e+03 3.3910390457e+03 2.2500000000e+03 0.0000e+00 0.0000e+00
      -11  1    4    4    0    0 -2.0217433249e-01 +1.2277680558e-01 -4.7816783214e-02 2.4131993357e-01 5.1100000000e-04 0.0000e+00 -1.0000e+00
  1000022  1    4    4    0    0 -1.8457652479e+03 +1.3980314707e+03 -1.0408038647e+03 3.3922137356e+03 2.2500000000e+03 0.0000e+00 0.0000e+00
<mgrwt>
<rscale>  0 0.64576704E+04</rscale>
<asrwt>0</asrwt>
<pdfrwt beam="1">  1        2 0.36198901E+00 0.64576704E+04</pdfrwt>
<pdfrwt beam="2">  1       -2 0.68166290E+00 0.64576704E+04</pdfrwt>
<totfact> 0.74107225E-04</totfact>
</mgrwt>
</event>
<event>
 8      1 +1.2359593e-08 5.70782200e+03 7.81860800e-03 7.72772300e-02
        2 -1    0    0  501    0 +0.0000000000e+00 +0.0000000000e+00 +3.1819356532e+03 3.1819356532e+03 2.5500000000e-03 0.0000e+00 1.0000e+00
       -2 -1    0    0    0  501 -0.0000000000e+00 -0.0000000000e+00 -2.5597023435e+03 2.5597023435e+03 2.5500000000e-03 0.0000e+00 -1.0000e+00
  1000011  2    1    2    0    0 -1.0797736415e+02 +1.5388890502e+03 +1.1539471894e+03 2.9621582747e+03 2.2500997552e+03 3.5601e+02 0.0000e+00
 -1000011  2    1    2    0    0 +1.0797736415e+02 -1.5388890502e+03 -5.3171387965e+02 2.7794797220e+03 2.2500998323e+03 8.7505e+02 0.0000e+00
       11  1    3    3    0    0 -4.4162042780e-03 -1.8160086033e-02 +1.0626516275e-01 1.0789734526e-01 5.1100000000e-04 0.0000e+00 1.0000e+00
  1000022  1    3    3    0    0 -1.0797294795e+02 +1.5389072103e+03 +1.1538409243e+03 2.9620503773e+03 2.2500000000e+03 0.0000e+00 0.0000e+00
      -11  1    4    4    0    0 +1.0548149725e-02 -1.6843227480e-02 -1.0976366535e-01 1.1154945381e-01 5.1100000000e-04 0.0000e+00 -1.0000e+00
  1000022  1    4    4    0    0 +1.0796681600e+02 -1.5388722069e+03 -5.3160411598e+02 2.7793681726e+03 2.2500000000e+03 0.0000e+00 0.0000e+00
<mgrwt>
<rscale>  0 0.57078221E+04</rscale>
<asrwt>0</asrwt>
<pdfrwt beam="1">  1        2 0.48952856E+00 0.57078221E+04</pdfrwt>
<pdfrwt beam="2">  1       -2 0.39380036E+00 0.57078221E+04</pdfrwt>
<totfact> 0.74741720E-03</totfact>
</mgrwt>
</event>
<event>
 8      1 +1.2359593e-08 4.80824500e+03 7.81860800e-03 7.85878800e-02
       -2 -1    0    0    0  501 -0.0000000000e+00 +0.0000000000e+00 +1.3505652908e+03 1.3505652908e+03 2.5500000000e-03 0.0000e+00 -1.0000e+00
        2 -1    0    0  501    0 +0.0000000000e+00 -0.0000000000e+00 -4.2795453363e+03 4.2795453363e+03 2.5500000000e-03 0.0000e+00 1.0000e+00
  1000011  2    1    2    0    0 -6.9353513558e+02 +3.2914203802e+02 -1.0463593052e+03 2.5975276354e+03 2.2501014546e+03 9.0695e+02 0.0000e+00
 -1000011  2    1    2    0    0 +6.9353513558e+02 -3.2914203802e+02 -1.8826207403e+03 3.0325829917e+03 2.2501051719e+03 4.7369e+02 0.0000e+00
       11  1    3    3    0    0 -1.2774388456e-01 +5.8392845626e-02 -7.9699665975e-02 1.6149465070e-01 5.1100000000e-04 0.0000e+00 1.0000e+00
  1000022  1    3    3    0    0 -6.9340739169e+02 +3.2908364517e+02 -1.0462796055e+03 2.5973661408e+03 2.2500000000e+03 0.0000e+00 0.0000e+00
      -11  1    4    4    0    0 -4.2199881827e-02 -8.5100969637e-02 -1.1400579151e-01 1.4839334943e-01 5.1100000000e-04 0.0000e+00 -1.0000e+00
  1000022  1    4    4    0    0 +6.9357733546e+02 -3.2905693705e+02 -1.8825067345e+03 3.0324345984e+03 2.2500000000e+03 0.0000e+00 0.0000e+00
<mgrwt>
<rscale>  0 0.48082452E+04</rscale>
<asrwt>0</asrwt>
<pdfrwt beam="1">  1        2 0.65839159E+00 0.48082452E+04</pdfrwt>
<pdfrwt beam="2">  1       -2 0.20777928E+00 0.48082452E+04</pdfrwt>
<totfact> 0.17191234E-02</totfact>
</mgrwt>
</event>
<event>
 8      1 +1.2359593e-08 4.76465000e+03 7.81860800e-03 7.86587400e-02
        2 -1    0    0  501    0 +0.0000000000e+00 +0.0000000000e+00 +4.2162427982e+03 4.2162427982e+03 2.5500000000e-03 0.0000e+00 1.0000e+00
       -2 -1    0    0    0  501 -0.0000000000e+00 -0.0000000000e+00 -1.3460970937e+03 1.3460970937e+03 2.5500000000e-03 0.0000e+00 -1.0000e+00
  1000011  2    1    2    0    0 +3.8848505434e+02 -6.7664250691e+02 +1.3634726971e+03 2.7442242325e+03 2.2500984695e+03 4.8495e+02 0.0000e+00
 -1000011  2    1    2    0    0 -3.8848505434e+02 +6.7664250691e+02 +1.5066730073e+03 2.8181156595e+03 2.2500992422e+03 2.2634e+02 0.0000e+00
       11  1    3    3    0    0 -1.6308901187e-02 +6.7022545637e-02 +1.9914025607e-02 7.1797149830e-02 5.1100000000e-04 0.0000e+00 1.0000e+00
  1000022  1    3    3    0    0 +3.8850136324e+02 -6.7670952945e+02 +1.3634527831e+03 2.7441524353e+03 2.2500000000e+03 0.0000e+00 0.0000e+00
      -11  1    4    4    0    0 +7.9048282839e-02 +2.2692112084e-02 +2.0534510667e-02 8.4767269997e-02 5.1100000000e-04 0.0000e+00 -1.0000e+00
  1000022  1    4    4    0    0 -3.8856410262e+02 +6.7661981479e+02 +1.5066524728e+03 2.8180308922e+03 2.2500000000e+03 0.0000e+00 0.0000e+00
<mgrwt>
<rscale>  0 0.47646499E+04</rscale>
<asrwt>0</asrwt>
<pdfrwt beam="1">  1        2 0.64865272E+00 0.47646499E+04</pdfrwt>
<pdfrwt beam="2">  1       -2 0.20709187E+00 0.47646499E+04</pdfrwt>
<totfact> 0.19838039E-02</totfact>
</mgrwt>
</event>
<event>
 8      1 +1.2359593e-08 4.58202000e+03 7.81860800e-03 7.89643300e-02
        2 -1    0    0  501    0 +0.0000000000e+00 +0.0000000000e+00 +3.4507404771e+03 3.4507404771e+03 2.5500000000e-03 0.0000e+00 1.0000e+00
       -2 -1    0    0    0  501 -0.0000000000e+00 -0.0000000000e+00 -1.5210434426e+03 1.5210434426e+03 2.5500000000e-03 0.0000e+00 -1.0000e+00
  1000011  2    1    2    0    0 +3.8877722190e+02 -1.6836863339e+02 +1.0508265522e+03 2.5192622726e+03 2.2501000489e+03 2.7478e+03 0.0000e+00
 -1000011  2    1    2    0    0 -3.8877722190e+02 +1.6836863339e+02 +8.7887048223e+02 2.4525216471e+03 2.2501007488e+03 5.2082e+01 0.0000e+00
       11  1    3    3    0    0 -4.3757997519e-02 -8.1284726709e-02 +7.6739287273e-02 1.2004644227e-01 5.1100000000e-04 0.0000e+00 1.0000e+00
  1000022  1    3    3    0    0 +3.8882097990e+02 -1.6828734866e+02 +1.0507498129e+03 2.5191422261e+03 2.2500000000e+03 0.0000e+00 0.0000e+00
      -11  1    4    4    0    0 +9.0488628475e-03 +9.1509505489e-02 -1.2493565151e-02 9.2802055097e-02 5.1100000000e-04 0.0000e+00 -1.0000e+00
  1000022  1    4    4    0    0 -3.8878627076e+02 +1.6827712388e+02 +8.7888297579e+02 2.4524288450e+03 2.2500000000e+03 0.0000e+00 0.0000e+00
<mgrwt>
<rscale>  0 0.45820197E+04</rscale>
<asrwt>0</asrwt>
<pdfrwt beam="1">  1        2 0.53088314E+00 0.45820197E+04</pdfrwt>
<pdfrwt beam="2">  1       -2 0.23400669E+00 0.45820197E+04</pdfrwt>
<totfact> 0.53354397E-02</totfact>
</mgrwt>
</event>
<event>
 8      1 +1.2359593e-08 7.18117400e+03 7.81860800e-03 7.55903400e-02
       -2 -1    0    0    0  501 -0.0000000000e+00 +0.0000000000e+00 +2.8176417679e+03 2.8176417679e+03 2.5500000000e-03 0.0000e+00 1.0000e+00
        2 -1    0    0  501    0 +0.0000000000e+00 -0.0000000000e+00 -4.5755689491e+03 4.5755689491e+03 2.5500000000e-03 0.0000e+00 -1.0000e+00
  1000011  2    1    2    0    0 -7.3431217546e+02 +2.6458800571e+03 -3.2505150244e+02 3.5648987379e+03 2.2500997499e+03 1.4449e+03 0.0000e+00
 -1000011  2    1    2    0    0 +7.3431217546e+02 -2.6458800571e+03 -1.4328756787e+03 3.8283119791e+03 2.2500987202e+03 2.3011e+01 0.0000e+00
       11  1    3    3    0    0 -1.0925915466e-01 +2.4554767888e-01 -1.8382901297e-02 2.6938711382e-01 5.1100000000e-04 0.0000e+00 1.0000e+00
  1000022  1    3    3    0    0 -7.3420291630e+02 +2.6456345094e+03 -3.2503311954e+02 3.5646293508e+03 2.2500000000e+03 0.0000e+00 0.0000e+00
      -11  1    4    4    0    0 +8.1503840577e-02 -6.3777550410e-02 -1.3055336525e-01 1.6659800033e-01 5.1100000000e-04 0.0000e+00 -1.0000e+00
  1000022  1    4    4    0    0 +7.3423067162e+02 -2.6458162796e+03 -1.4327451254e+03 3.8281453811e+03 2.2500000000e+03 0.0000e+00 0.0000e+00
<mgrwt>
<rscale>  0 0.71811738E+04</rscale>
<asrwt>0</asrwt>
<pdfrwt beam="1">  1        2 0.70393368E+00 0.71811738E+04</pdfrwt>
<pdfrwt beam="2">  1       -2 0.43348335E+00 0.71811738E+04</pdfrwt>
<totfact> 0.28132143E-04</totfact>
</mgrwt>
</event>
<event>
 8      1 +1.2359593e-08 4.84057500e+03 7.81860800e-03 7.85358200e-02
        2 -1    0    0  501    0 +0.0000000000e+00 +0.0000000000e+00 +2.4095134590e+03 2.4095134590e+03 2.5500000000e-03 0.0000e+00 1.0000e+00
       -2 -1    0    0    0  501 -0.0000000000e+00 -0.0000000000e+00 -2.4311098286e+03 2.4311098286e+03 2.5500000000e-03 0.0000e+00 -1.0000e+00
  1000011  2    1    2    0    0 +1.5008159385e+00 +2.1158463574e+02 -8.7687244674e+02 2.4241737553e+03 2.2500983973e+03 1.6893e+02 0.0000e+00
 -1000011  2    1    2    0    0 -1.5008159385e+00 -2.1158463574e+02 +8.5527607707e+02 2.4164495323e+03 2.2501024118e+03 5.1734e+02 0.0000e+00
       11  1    3    3    0    0 +6.6189174029e-02 +7.8455189834e-02 -1.5435100724e-02 1.0380138076e-01 5.1100000000e-04 0.0000e+00 1.0000e+00
  1000022  1    3    3    0    0 +1.4346267645e+00 +2.1150618055e+02 -8.7685701164e+02 2.4240699539e+03 2.2500000000e+03 0.0000e+00 0.0000e+00
      -11  1    4    4    0    0 +3.4696505272e-02 +5.7533369344e-02 -3.7599006977e-02 7.6992739147e-02 5.1100000000e-04 0.0000e+00 -1.0000e+00
  1000022  1    4    4    0    0 -1.5355124438e+00 -2.1164216911e+02 +8.5531367608e+02 2.4163725396e+03 2.2500000000e+03 0.0000e+00 0.0000e+00
<mgrwt>
<rscale>  0 0.48405751E+04</rscale>
<asrwt>0</asrwt>
<pdfrwt beam="1">  1        2 0.37069438E+00 0.48405751E+04</pdfrwt>
<pdfrwt beam="2">  1       -2 0.37401690E+00 0.48405751E+04</pdfrwt>
<totfact> 0.31675693E-02</totfact>
</mgrwt>
</event>
<event>
 8      1 +1.2359593e-08 5.21852500e+03 7.81860800e-03 7.79565400e-02
        2 -1    0    0  501    0 +0.0000000000e+00 +0.0000000000e+00 +3.6273136967e+03 3.6273136967e+03 2.5500000000e-03 0.0000e+00 1.0000e+00
       -2 -1    0    0    0  501 -0.0000000000e+00 -0.0000000000e+00 -1.8769403480e+03 1.8769403480e+03 2.5500000000e-03 0.0000e+00 -1.0000e+00
  1000011  2    1    2    0    0 -3.6921697027e+02 +2.1304356955e+02 +2.1940700637e+03 3.1715285005e+03 2.2500979649e+03 1.2063e+02 0.0000e+00
 -1000011  2    1    2    0    0 +3.6921697027e+02 -2.1304356955e+02 -4.4369671504e+02 2.3327255442e+03 2.2501184316e+03 2.7463e+02 0.0000e+00
       11  1    3    3    0    0 -1.0012240303e-01 -2.6652230800e-02 +1.5610830320e-01 1.8736301722e-01 5.1100000000e-04 0.0000e+00 1.0000e+00
  1000022  1    3    3    0    0 -3.6911684787e+02 +2.1307022178e+02 +2.1939139554e+03 3.1713411375e+03 2.2500000000e+03 0.0000e+00 0.0000e+00
      -11  1    4    4    0    0 +6.9081588353e-02 +7.8467014297e-02 -8.3699777602e-02 1.3392255835e-01 5.1100000000e-04 0.0000e+00 -1.0000e+00
  1000022  1    4    4    0    0 +3.6914788868e+02 -2.1312203657e+02 -4.4361301526e+02 2.3325916217e+03 2.2500000000e+03 0.0000e+00 0.0000e+00
<mgrwt>
<rscale>  0 0.52185252E+04</rscale>
<asrwt>0</asrwt>
<pdfrwt beam="1">  1        2 0.55804825E+00 0.52185252E+04</pdfrwt>
<pdfrwt beam="2">  1       -2 0.28876006E+00 0.52185252E+04</pdfrwt>
<totfact> 0.17531473E-02</totfact>
</mgrwt>
</event>
<event>
 8      1 +1.2359593e-08 4.81486200e+03 7.81860800e-03 7.85771900e-02
       -2 -1    0    0    0  501 -0.0000000000e+00 +0.0000000000e+00 +2.2067444164e+03 2.2067444164e+03 2.5500000000e-03 0.0000e+00 -1.0000e+00
        2 -1    0    0  501    0 +0.0000000000e+00 -0.0000000000e+00 -2.6263685634e+03 2.6263685634e+03 2.5500000000e-03 0.0000e+00 1.0000e+00
  1000011  2    1    2    0    0 -7.9385079461e+02 -2.0573479490e+01 -5.3061557186e+02 2.4444127234e+03 2.2501062920e+03 4.0261e+02 0.0000e+00
 -1000011  2    1    2    0    0 +7.9385079461e+02 +2.0573479490e+01 +1.1099142486e+02 2.3887002564e+03 2.2500994348e+03 3.0065e+02 0.0000e+00
       11  1    3    3    0    0 +3.5777281356e-02 -8.1523276293e-02 -2.0129288878e-02 9.1277093594e-02 5.1100000000e-04 0.0000e+00 1.0000e+00
  1000022  1    3    3    0    0 -7.9388657189e+02 -2.0491956214e+01 -5.3059544257e+02 2.4443214463e+03 2.2500000000e+03 0.0000e+00 0.0000e+00
      -11  1    4    4    0    0 +1.2586953918e-02 +3.3646720120e-02 +9.6105702025e-02 1.0260165498e-01 5.1100000000e-04 0.0000e+00 -1.0000e+00
  1000022  1    4    4    0    0 +7.9383820766e+02 +2.0539832770e+01 +1.1089531916e+02 2.3885976548e+03 2.2500000000e+03 0.0000e+00 0.0000e+00
<mgrwt>
<rscale>  0 0.48148621E+04</rscale>
<asrwt>0</asrwt>
<pdfrwt beam="1">  1        2 0.40405670E+00 0.48148621E+04</pdfrwt>
<pdfrwt beam="2">  1       -2 0.33949914E+00 0.48148621E+04</pdfrwt>
<totfact> 0.39289254E-02</totfact>
</mgrwt>
</event>
<event>
 8      1 +1.2359593e-08 4.66399700e+03 7.81860800e-03 7.88253800e-02
        2 -1    0    0  501    0 +0.0000000000e+00 +0.0000000000e+00 +3.4265962586e+03 3.4265962586e+03 2.5500000000e-03 0.0000e+00 1.0000e+00
       -2 -1    0    0    0  501 -0.0000000000e+00 -0.0000000000e+00 -1.5870608260e+03 1.5870608260e+03 2.5500000000e-03 0.0000e+00 -1.0000e+00
  1000011  2    1    2    0    0 -4.0974419701e+02 -4.3138393368e+02 +7.6294519022e+02 2.4492897820e+03 2.2501005906e+03 1.6308e+03 0.0000e+00
 -1000011  2    1    2    0    0 +4.0974419701e+02 +4.3138393368e+02 +1.0765902423e+03 2.5643673025e+03 2.2501001550e+03 1.5854e+02 0.0000e+00
       11  1    3    3    0    0 -1.1323998833e-01 +1.4714508794e-02 +2.9378220498e-02 1.1791163033e-01 5.1100000000e-04 0.0000e+00 1.0000e+00
  1000022  1    3    3    0    0 -4.0963095702e+02 -4.3139864819e+02 +7.6291581200e+02 2.4491718704e+03 2.2500000000e+03 0.0000e+00 0.0000e+00
      -11  1    4    4    0    0 -5.5457069264e-02 +3.7541555719e-02 -2.9217274297e-02 7.3066850235e-02 5.1100000000e-04 0.0000e+00 -1.0000e+00
  1000022  1    4    4    0    0 +4.0979965408e+02 +4.3134639213e+02 +1.0766194596e+03 2.5642942357e+03 2.2500000000e+03 0.0000e+00 0.0000e+00
<mgrwt>
<rscale>  0 0.46639969E+04</rscale>
<asrwt>0</asrwt>
<pdfrwt beam="1">  1        2 0.52716866E+00 0.46639969E+04</pdfrwt>
<pdfrwt beam="2">  1       -2 0.24416320E+00 0.46639969E+04</pdfrwt>
<totfact> 0.47642555E-02</totfact>
</mgrwt>
</event>
<event>
 8      1 +1.2359593e-08 4.78713000e+03 7.81860800e-03 7.86221100e-02
        2 -1    0    0  501    0 +0.0000000000e+00 +0.0000000000e+00 +3.1834001899e+03 3.1834001899e+03 2.5500000000e-03 0.0000e+00 1.0000e+00
       -2 -1    0    0    0  501 -0.0000000000e+00 -0.0000000000e+00 -1.7996960580e+03 1.7996960580e+03 2.5500000000e-03 0.0000e+00 -1.0000e+00
  1000011  2    1    2    0    0 -1.3584308685e+02 -5.6966696562e+00 +1.5296015756e+03 2.7241729272e+03 2.2501003002e+03 4.7953e+01 0.0000e+00
 -1000011  2    1    2    0    0 +1.3584308685e+02 +5.6966696562e+00 -1.4589744379e+02 2.2589233207e+03 2.2501028217e+03 2.6405e+02 0.0000e+00
       11  1    3    3    0    0 -4.6852395448e-02 -3.0399946967e-02 +1.7450843260e-01 1.8322870296e-01 5.1100000000e-04 0.0000e+00 1.0000e+00
  1000022  1    3    3    0    0 -1.3579623446e+02 -5.6662697092e+00 +1.5294270672e+03 2.7239896985e+03 2.2500000000e+03 0.0000e+00 0.0000e+00
      -11  1    4    4    0    0 -1.7127223849e-02 +6.6712882801e-02 -8.1661038080e-02 1.0683040977e-01 5.1100000000e-04 0.0000e+00 -1.0000e+00
  1000022  1    4    4    0    0 +1.3586021408e+02 +5.6299567734e+00 -1.4581578275e+02 2.2588164903e+03 2.2500000000e+03 0.0000e+00 0.0000e+00
<mgrwt>
<rscale>  0 0.47871297E+04</rscale>
<asrwt>0</asrwt>
<pdfrwt beam="1">  1        2 0.48975387E+00 0.47871297E+04</pdfrwt>
<pdfrwt beam="2">  1       -2 0.27687632E+00 0.47871297E+04</pdfrwt>
<totfact> 0.43274043E-02</totfact>
</mgrwt>
</event>
<event>
 8      1 +1.2359593e-08 4.67836600e+03 7.81860800e-03 7.88013300e-02
       -2 -1    0    0    0  501 -0.0000000000e+00 +0.0000000000e+00 +2.0373716190e+03 2.0373716190e+03 2.5500000000e-03 0.0000e+00 -1.0000e+00
        2 -1    0    0  501    0 +0.0000000000e+00 -0.0000000000e+00 -2.6857041467e+03 2.6857041467e+03 2.5500000000e-03 0.0000e+00 1.0000e+00
  1000011  2    1    2    0    0 +4.2586626537e+02 +4.0357068469e+02 -6.7507019527e+01 2.3262983636e+03 2.2500834441e+03 1.8415e+03 0.0000e+00
 -1000011  2    1    2    0    0 -4.2586626537e+02 -4.0357068469e+02 -5.8082550814e+02 2.3967774021e+03 2.2501005024e+03 1.0430e+02 0.0000e+00
       11  1    3    3    0    0 +4.0158487870e-02 +4.9091194434e-03 -8.1830314966e-02 9.1286718147e-02 5.1100000000e-04 0.0000e+00 1.0000e+00
  1000022  1    3    3    0    0 +4.2582610688e+02 +4.0356577558e+02 -6.7425189212e+01 2.3262070769e+03 2.2500000000e+03 0.0000e+00 0.0000e+00
      -11  1    4    4    0    0 +2.1448124491e-02 +2.7973039793e-02 +6.1533928017e-02 7.0916837407e-02 5.1100000000e-04 0.0000e+00 -1.0000e+00
  1000022  1    4    4    0    0 -4.2588771349e+02 -4.0359865773e+02 -5.8088704207e+02 2.3967064853e+03 2.2500000000e+03 0.0000e+00 0.0000e+00
<mgrwt>
<rscale>  0 0.46783661E+04</rscale>
<asrwt>0</asrwt>
<pdfrwt beam="1">  1        2 0.41318526E+00 0.46783661E+04</pdfrwt>
<pdfrwt beam="2">  1       -2 0.31344179E+00 0.46783661E+04</pdfrwt>
<totfact> 0.53152630E-02</totfact>
</mgrwt>
</event>
<event>
 8      1 +1.2359593e-08 6.58267900e+03 7.81860800e-03 7.62207500e-02
       -2 -1    0    0    0  501 -0.0000000000e+00 +0.0000000000e+00 +2.1280972465e+03 2.1280972465e+03 2.5500000000e-03 0.0000e+00 -1.0000e+00
        2 -1    0    0  501    0 +0.0000000000e+00 -0.0000000000e+00 -5.0904236966e+03 5.0904236967e+03 2.5500000000e-03 0.0000e+00 1.0000e+00
  1000011  2    1    2    0    0 +1.2149304972e+02 -2.3936409557e+03 -1.3054056376e+03 3.5371334385e+03 2.2501003305e+03 5.1575e+01 0.0000e+00
 -1000011  2    1    2    0    0 -1.2149304972e+02 +2.3936409557e+03 -1.6569208126e+03 3.6813875046e+03 2.2500999521e+03 1.4040e+03 0.0000e+00
       11  1    3    3    0    0 +9.1573041779e-02 -3.6362005940e-02 -3.8738169429e-02 1.0587126174e-01 5.1100000000e-04 0.0000e+00 1.0000e+00
  1000022  1    3    3    0    0 +1.2140147667e+02 -2.3936045937e+03 -1.3053668994e+03 3.5370275673e+03 2.2500000000e+03 0.0000e+00 0.0000e+00
      -11  1    4    4    0    0 +1.8924198955e-02 -3.1843152770e-02 +5.2206990227e-03 3.7411605284e-02 5.1100000000e-04 0.0000e+00 -1.0000e+00
  1000022  1    4    4    0    0 -1.2151197391e+02 +2.3936727988e+03 -1.6569260333e+03 3.6813500930e+03 2.2500000000e+03 0.0000e+00 0.0000e+00
<mgrwt>
<rscale>  0 0.65826793E+04</rscale>
<asrwt>0</asrwt>
<pdfrwt beam="1">  1        2 0.78314211E+00 0.65826793E+04</pdfrwt>
<pdfrwt beam="2">  1       -2 0.32739958E+00 0.65826793E+04</pdfrwt>
<totfact> 0.35380296E-04</totfact>
</mgrwt>
</event>
<event>
 8      1 +1.2359593e-08 5.46585800e+03 7.81860800e-03 7.76040500e-02
        2 -1    0    0  501    0 +0.0000000000e+00 +0.0000000000e+00 +3.5612788749e+03 3.5612788749e+03 2.5500000000e-03 0.0000e+00 1.0000e+00
       -2 -1    0    0    0  501 -0.0000000000e+00 -0.0000000000e+00 -2.0972528474e+03 2.0972528474e+03 2.5500000000e-03 0.0000e+00 -1.0000e+00
  1000011  2    1    2    0    0 -7.9699865723e+02 +1.3116643040e+03 +4.9985390908e+02 2.7691985838e+03 2.2500970557e+03 1.7167e+03 0.0000e+00
 -1000011  2    1    2    0    0 +7.9699865723e+02 -1.3116643040e+03 +9.6417211842e+02 2.8893331386e+03 2.2500995546e+03 2.8422e+02 0.0000e+00
       11  1    3    3    0    0 +3.3395532693e-02 +5.5527768767e-03 -5.2433047870e-02 6.2414580036e-02 5.1100000000e-04 0.0000e+00 1.0000e+00
  1000022  1    3    3    0    0 -7.9703205276e+02 +1.3116587512e+03 +4.9990634212e+02 2.7691361692e+03 2.2500000000e+03 0.0000e+00 0.0000e+00
      -11  1    4    4    0    0 +1.1851546542e-01 -3.6533826746e-03 +3.6653133091e-02 1.2410872465e-01 5.1100000000e-04 0.0000e+00 -1.0000e+00
  1000022  1    4    4    0    0 +7.9688014176e+02 -1.3116606506e+03 +9.6413546528e+02 2.8892090298e+03 2.2500000000e+03 0.0000e+00 0.0000e+00
<mgrwt>
<rscale>  0 0.54658585E+04</rscale>
<asrwt>0</asrwt>
<pdfrwt beam="1">  1        2 0.54788905E+00 0.54658585E+04</pdfrwt>
<pdfrwt beam="2">  1       -2 0.32265429E+00 0.54658585E+04</pdfrwt>
<totfact> 0.11877219E-02</totfact>
</mgrwt>
</event>
<event>
 8      1 +1.2359593e-08 4.84657400e+03 7.81860800e-03 7.85262000e-02
       -2 -1    0    0    0  501 -0.0000000000e+00 +0.0000000000e+00 +2.9480595366e+03 2.9480595366e+03 2.5500000000e-03 0.0000e+00 -1.0000e+00
        2 -1    0    0  501    0 +0.0000000000e+00 -0.0000000000e+00 -1.9919274018e+03 1.9919274018e+03 2.5500000000e-03 0.0000e+00 1.0000e+00
  1000011  2    1    2    0    0 -6.6985903902e+01 +3.2509715101e+02 +1.3303599709e+03 2.6349547853e+03 2.2501008421e+03 1.2396e+03 0.0000e+00
 -1000011  2    1    2    0    0 +6.6985903902e+01 -3.2509715101e+02 -3.7422783614e+02 2.3050321530e+03 2.2501003276e+03 1.8141e+03 0.0000e+00
       11  1    3    3    0    0 -6.6107170981e-02 +1.2007171280e-02 -3.0592724606e-02 7.3827541832e-02 5.1100000000e-04 0.0000e+00 1.0000e+00
  1000022  1    3    3    0    0 -6.6919796731e+01 +3.2508514384e+02 +1.3303905636e+03 2.6348809578e+03 2.2500000000e+03 0.0000e+00 0.0000e+00
      -11  1    4    4    0    0 +8.4149538707e-02 -5.9775362100e-02 +2.1181821492e-02 1.0537157531e-01 5.1100000000e-04 0.0000e+00 -1.0000e+00
  1000022  1    4    4    0    0 +6.6901754363e+01 -3.2503737565e+02 -3.7424901797e+02 2.3049267814e+03 2.2500000000e+03 0.0000e+00 0.0000e+00
<mgrwt>
<rscale>  0 0.48465743E+04</rscale>
<asrwt>0</asrwt>
<pdfrwt beam="1">  1        2 0.30645037E+00 0.48465743E+04</pdfrwt>
<pdfrwt beam="2">  1       -2 0.45354762E+00 0.48465743E+04</pdfrwt>
<totfact> 0.16400817E-02</totfact>
</mgrwt>
</event>
<event>
 8      1 +1.2359593e-08 6.12793100e+03 7.81860800e-03 7.67473900e-02
        2 -1    0    0  501    0 +0.0000000000e+00 +0.0000000000e+00 +3.5800515830e+03 3.5800515830e+03 2.5500000000e-03 0.0000e+00 1.0000e+00
       -2 -1    0    0    0  501 -0.0000000000e+00 -0.0000000000e+00 -2.6222767346e+03 2.6222767346e+03 2.5500000000e-03 0.0000e+00 -1.0000e+00
  1000011  2    1    2    0    0 -1.8883818383e+03 -7.7455186116e+02 +7.5314063924e+01 3.0388484891e+03 2.2501136369e+03 2.2396e+03 0.0000e+00
 -1000011  2    1    2    0    0 +1.8883818383e+03 +7.7455186116e+02 +8.8246078451e+02 3.1634798285e+03 2.2501002281e+03 1.3601e+03 0.0000e+00
       11  1    3    3    0    0 -1.8814126976e-01 +1.1452938732e-03 -6.5266792361e-02 1.9914433036e-01 5.1100000000e-04 0.0000e+00 1.0000e+00
  1000022  1    3    3    0    0 -1.8881936970e+03 -7.7455300646e+02 +7.5379330717e+01 3.0386493448e+03 2.2500000000e+03 0.0000e+00 0.0000e+00
      -11  1    4    4    0    0 +1.2760892937e-01 +1.3602042489e-01 +2.8182626106e-02 1.8862692227e-01 5.1100000000e-04 0.0000e+00 -1.0000e+00
  1000022  1    4    4    0    0 +1.8882542293e+03 +7.7441584074e+02 +8.8243260188e+02 3.1632912016e+03 2.2500000000e+03 0.0000e+00 0.0000e+00
<mgrwt>
<rscale>  0 0.61279315E+04</rscale>
<asrwt>0</asrwt>
<pdfrwt beam="1">  1        2 0.55077716E+00 0.61279315E+04</pdfrwt>
<pdfrwt beam="2">  1       -2 0.40342719E+00 0.61279315E+04</pdfrwt>
<totfact> 0.33485340E-03</totfact>
</mgrwt>
</event>
<event>
 8      1 +1.2359593e-08 5.90822300e+03 7.81860800e-03 7.70188600e-02
       -2 -1    0    0    0  501 -0.0000000000e+00 +0.0000000000e+00 +2.4684478114e+03 2.4684478114e+03 2.5500000000e-03 0.0000e+00 -1.0000e+00
        2 -1    0    0  501    0 +0.0000000000e+00 -0.0000000000e+00 -3.5353288570e+03 3.5353288570e+03 2.5500000000e-03 0.0000e+00 1.0000e+00
  1000011  2    1    2    0    0 -4.2689496065e+02 +3.0739162627e+02 -2.4036129752e+03 3.3342202461e+03 2.2500978636e+03 4.3372e+02 0.0000e+00
 -1000011  2    1    2    0    0 +4.2689496065e+02 -3.0739162627e+02 +1.3367319296e+03 2.6695564223e+03 2.2501000691e+03 1.1716e+03 0.0000e+00
       11  1    3    3    0    0 -1.0060189933e-01 +2.0874279141e-02 -2.0104622844e-01 2.2577937110e-01 5.1100000000e-04 0.0000e+00 1.0000e+00
  1000022  1    3    3    0    0 -4.2679435875e+02 +3.0737075199e+02 -2.4034119289e+03 3.3339944667e+03 2.2500000000e+03 0.0000e+00 0.0000e+00
      -11  1    4    4    0    0 +1.1684666669e-01 -4.2744171859e-02 +6.2301474196e-02 1.3914719477e-01 5.1100000000e-04 0.0000e+00 -1.0000e+00
  1000022  1    4    4    0    0 +4.2677811399e+02 -3.0734888210e+02 +1.3366696281e+03 2.6694172751e+03 2.2500000000e+03 0.0000e+00 0.0000e+00
<mgrwt>
<rscale>  0 0.59082230E+04</rscale>
<asrwt>0</asrwt>
<pdfrwt beam="1">  1        2 0.54389675E+00 0.59082230E+04</pdfrwt>
<pdfrwt beam="2">  1       -2 0.37976120E+00 0.59082230E+04</pdfrwt>
<totfact> 0.52204791E-03</totfact>
</mgrwt>
</event>
<event>
 8      1 +1.2359593e-08 4.90209900e+03 7.81860800e-03 7.84378900e-02
       -2 -1    0    0    0  501 -0.0000000000e+00 +0.0000000000e+00 +4.6002816213e+03 4.6002816213e+03 2.5500000000e-03 0.0000e+00 -1.0000e+00
        2 -1    0    0  501    0 +0.0000000000e+00 -0.0000000000e+00 -1.3059297311e+03 1.3059297311e+03 2.5500000000e-03 0.0000e+00 1.0000e+00
  1000011  2    1    2    0    0 -1.1569988685e+02 +1.8934033800e+02 +2.7872969771e+03 3.5890399360e+03 2.2500993304e+03 3.4625e+02 0.0000e+00
 -1000011  2    1    2    0    0 +1.1569988685e+02 -1.8934033800e+02 +5.0705491309e+02 2.3171714164e+03 2.2500983225e+03 5.3098e+02 0.0000e+00
       11  1    3    3    0    0 -4.4882650375e-02 +5.1266851719e-02 +2.2573130106e-03 6.8176963928e-02 5.1100000000e-04 0.0000e+00 1.0000e+00
  1000022  1    3    3    0    0 -1.1565500420e+02 +1.8928907115e+02 +2.7872947198e+03 3.5889717591e+03 2.2500000000e+03 0.0000e+00 0.0000e+00
      -11  1    4    4    0    0 -5.3226232874e-02 +5.3419096936e-03 +1.0128380523e-01 1.1454360535e-01 5.1100000000e-04 0.0000e+00 -1.0000e+00
  1000022  1    4    4    0    0 +1.1575311309e+02 -1.8934567991e+02 +5.0695362929e+02 2.3170568728e+03 2.2500000000e+03 0.0000e+00 0.0000e+00
<mgrwt>
<rscale>  0 0.49020994E+04</rscale>
<asrwt>0</asrwt>
<pdfrwt beam="1">  1        2 0.20091227E+00 0.49020994E+04</pdfrwt>
<pdfrwt beam="2">  1       -2 0.70773564E+00 0.49020994E+04</pdfrwt>
<totfact> 0.25862030E-03</totfact>
</mgrwt>
</event>
<event>
 8      1 +1.2359593e-08 5.33270400e+03 7.81860800e-03 7.77913800e-02
       -2 -1    0    0    0  501 -0.0000000000e+00 +0.0000000000e+00 +1.5462456139e+03 1.5462456139e+03 2.5500000000e-03 0.0000e+00 -1.0000e+00
        2 -1    0    0  501    0 +0.0000000000e+00 -0.0000000000e+00 -4.5978675567e+03 4.5978675567e+03 2.5500000000e-03 0.0000e+00 1.0000e+00
  1000011  2    1    2    0    0 -2.7910448190e+02 +1.3981955582e+03 -1.3913152633e+03 3.0052551341e+03 2.2501000263e+03 3.8689e+02 0.0000e+00
 -1000011  2    1    2    0    0 +2.7910448190e+02 -1.3981955582e+03 -1.6603066795e+03 3.1388580365e+03 2.2501025248e+03 2.8477e+02 0.0000e+00
       11  1    3    3    0    0 -9.5996092657e-02 +1.2982349333e-01 -1.0750330847e-01 1.9397580102e-01 5.1100000000e-04 0.0000e+00 1.0000e+00
  1000022  1    3    3    0    0 -2.7900848581e+02 +1.3980657347e+03 -1.3912077600e+03 3.0050611583e+03 2.2500000000e+03 0.0000e+00 0.0000e+00
      -11  1    4    4    0    0 -6.6641725865e-02 -3.1772023259e-02 -1.3286534123e-01 1.5200013459e-01 5.1100000000e-04 0.0000e+00 -1.0000e+00
  1000022  1    4    4    0    0 +2.7917112362e+02 -1.3981637862e+03 -1.6601738141e+03 3.1387060363e+03 2.2500000000e+03 0.0000e+00 0.0000e+00
<mgrwt>
<rscale>  0 0.53327038E+04</rscale>
<asrwt>0</asrwt>
<pdfrwt beam="1">  1        2 0.70736423E+00 0.53327038E+04</pdfrwt>
<pdfrwt beam="2">  1       -2 0.23788394E+00 0.53327038E+04</pdfrwt>
<totfact> 0.52546354E-03</totfact>
</mgrwt>
</event>
<event>
 8      1 +1.2359593e-08 4.78801000e+03 7.81860800e-03 7.86206700e-02
        2 -1    0    0  501    0 +0.0000000000e+00 +0.0000000000e+00 +3.3643855367e+03 3.3643855367e+03 2.5500000000e-03 0.0000e+00 1.0000e+00
       -2 -1    0    0    0  501 -0.0000000000e+00 -0.0000000000e+00 -1.7035085367e+03 1.7035085367e+03 2.5500000000e-03 0.0000e+00 -1.0000e+00
  1000011  2    1    2    0    0 -1.4941208115e+02 +2.7916494848e+02 +3.2682954764e+01 2.2725037443e+03 2.2500995654e+03 5.2956e+01 0.0000e+00
 -1000011  2    1    2    0    0 +1.4941208115e+02 -2.7916494848e+02 +1.6281940452e+03 2.7953903290e+03 2.2500964878e+03 1.3556e+03 0.0000e+00
       11  1    3    3    0    0 -2.8849905245e-03 +1.1681540210e-02 +1.0094212983e-01 1.0165803282e-01 5.1100000000e-04 0.0000e+00 1.0000e+00
  1000022  1    3    3    0    0 -1.4940919616e+02 +2.7915326694e+02 +3.2582012634e+01 2.2724020863e+03 2.2500000000e+03 0.0000e+00 0.0000e+00
      -11  1    4    4    0    0 -1.1001989784e-02 -1.0729584898e-01 +7.0546282621e-02 1.2888165808e-01 5.1100000000e-04 0.0000e+00 -1.0000e+00
  1000022  1    4    4    0    0 +1.4942308314e+02 -2.7905765263e+02 +1.6281234989e+03 2.7952614474e+03 2.2500000000e+03 0.0000e+00 0.0000e+00
<mgrwt>
<rscale>  0 0.47880098E+04</rscale>
<asrwt>0</asrwt>
<pdfrwt beam="1">  1        2 0.51759777E+00 0.47880098E+04</pdfrwt>
<pdfrwt beam="2">  1       -2 0.26207824E+00 0.47880098E+04</pdfrwt>
<totfact> 0.40382350E-02</totfact>
</mgrwt>
</event>
<event>
 8      1 +1.2359593e-08 5.17800500e+03 7.81860800e-03 7.80162000e-02
       -2 -1    0    0    0  501 -0.0000000000e+00 +0.0000000000e+00 +4.6385957140e+03 4.6385957140e+03 2.5500000000e-03 0.0000e+00 -1.0000e+00
        2 -1    0    0  501    0 +0.0000000000e+00 -0.0000000000e+00 -1.4450349867e+03 1.4450349867e+03 2.5500000000e-03 0.0000e+00 1.0000e+00
  1000011  2    1    2    0    0 +2.0774205984e+02 +3.2673717005e+02 +1.6260740621e+02 2.2889529557e+03 2.2501001140e+03 1.9756e+03 0.0000e+00
 -1000011  2    1    2    0    0 -2.0774205984e+02 -3.2673717005e+02 +3.0309533211e+03 3.7946777450e+03 2.2501082667e+03 8.2151e+02 0.0000e+00
       11  1    3    3    0    0 -5.1250563945e-02 +7.6177078204e-02 -4.3393956258e-02 1.0155227125e-01 5.1100000000e-04 0.0000e+00 1.0000e+00
  1000022  1    3    3    0    0 +2.0779331040e+02 +3.2666099298e+02 +1.6265080017e+02 2.2888514034e+03 2.2500000000e+03 0.0000e+00 0.0000e+00
      -11  1    4    4    0    0 +4.8467898105e-02 -5.2354331738e-02 +2.8439753510e-01 2.9321038863e-01 5.1100000000e-04 0.0000e+00 -1.0000e+00
  1000022  1    4    4    0    0 -2.0779052774e+02 -3.2668481572e+02 +3.0306689235e+03 3.7943845346e+03 2.2500000000e+03 0.0000e+00 0.0000e+00
<mgrwt>
<rscale>  0 0.51780047E+04</rscale>
<asrwt>0</asrwt>
<pdfrwt beam="1">  1        2 0.22231307E+00 0.51780047E+04</pdfrwt>
<pdfrwt beam="2">  1       -2 0.71363011E+00 0.51780047E+04</pdfrwt>
<totfact> 0.20043821E-03</totfact>
</mgrwt>
</event>
<event>
 8      1 +1.2359593e-08 4.79119100e+03 7.81860800e-03 7.86155100e-02
       -2 -1    0    0    0  501 -0.0000000000e+00 +0.0000000000e+00 +2.4720391298e+03 2.4720391298e+03 2.5500000000e-03 0.0000e+00 -1.0000e+00
        2 -1    0    0  501    0 +0.0000000000e+00 -0.0000000000e+00 -2.3215156802e+03 2.3215156802e+03 2.5500000000e-03 0.0000e+00 1.0000e+00
  1000011  2    1    2    0    0 -7.3148477717e+02 -3.1758855660e+02 +2.7534816700e+02 2.4030607274e+03 2.2501003925e+03 6.9962e+02 0.0000e+00
 -1000011  2    1    2    0    0 +7.3148477717e+02 +3.1758855660e+02 -1.2482471734e+02 2.3904940826e+03 2.2500996152e+03 1.3895e+02 0.0000e+00
       11  1    3    3    0    0 -9.0978258926e-02 +5.0989411370e-02 -3.7117262246e-02 1.1070192180e-01 5.1100000000e-04 0.0000e+00 1.0000e+00
  1000022  1    3    3    0    0 -7.3139379891e+02 -3.1763954602e+02 +2.7538528427e+02 2.4029500255e+03 2.2500000000e+03 0.0000e+00 0.0000e+00
      -11  1    4    4    0    0 -6.2030614123e-02 -3.3319806477e-02 -5.9368519168e-03 7.0664796705e-02 5.1100000000e-04 0.0000e+00 -1.0000e+00
  1000022  1    4    4    0    0 +7.3154680779e+02 +3.1762187641e+02 -1.2481878049e+02 2.3904234178e+03 2.2500000000e+03 0.0000e+00 0.0000e+00
<mgrwt>
<rscale>  0 0.47911909E+04</rscale>
<asrwt>0</asrwt>
<pdfrwt beam="1">  1        2 0.35715626E+00 0.47911909E+04</pdfrwt>
<pdfrwt beam="2">  1       -2 0.38031371E+00 0.47911909E+04</pdfrwt>
<totfact> 0.32520977E-02</totfact>
</mgrwt>
</event>
<event>
 8      1 +1.2359593e-08 4.67123000e+03 7.81860800e-03 7.88132600e-02
        2 -1    0    0  501    0 +0.0000000000e+00 +0.0000000000e+00 +2.1225049326e+03 2.1225049326e+03 2.5500000000e-03 0.0000e+00 1.0000e+00
       -2 -1    0    0    0  501 -0.0000000000e+00 -0.0000000000e+00 -2.5701228262e+03 2.5701228262e+03 2.5500000000e-03 0.0000e+00 -1.0000e+00
  1000011  2    1    2    0    0 -3.5528197128e+02 +2.1402192351e+02 +2.4750494812e+02 2.3013564749e+03 2.2501005005e+03 1.3595e+03 0.0000e+00
 -1000011  2    1    2    0    0 +3.5528197128e+02 -2.1402192351e+02 -6.9512284164e+02 2.3912712839e+03 2.2501004256e+03 6.4026e+02 0.0000e+00
       11  1    3    3    0    0 +2.5868994256e-02 +7.2182889222e-02 +7.7981099166e-02 1.0936583998e-01 5.1100000000e-04 0.0000e+00 1.0000e+00
  1000022  1    3    3    0    0 -3.5530784028e+02 +2.1394974062e+02 +2.4742696702e+02 2.3012471090e+03 2.2500000000e+03 0.0000e+00 0.0000e+00
      -11  1    4    4    0    0 -4.4194360639e-02 +3.8817430889e-02 -9.5594325802e-02 1.1224290794e-01 5.1100000000e-04 0.0000e+00 -1.0000e+00
  1000022  1    4    4    0    0 +3.5532616564e+02 -2.1406074094e+02 -6.9502724732e+02 2.3911590410e+03 2.2500000000e+03 0.0000e+00 0.0000e+00
<mgrwt>
<rscale>  0 0.46712304E+04</rscale>
<asrwt>0</asrwt>
<pdfrwt beam="1">  1        2 0.32653922E+00 0.46712304E+04</pdfrwt>
<pdfrwt beam="2">  1       -2 0.39540351E+00 0.46712304E+04</pdfrwt>
<totfact> 0.33937237E-02</totfact>
</mgrwt>
</event>
<event>
 8      1 +1.2359593e-08 4.58673100e+03 7.81860800e-03 7.89562600e-02
       -2 -1    0    0    0  501 -0.0000000000e+00 +0.0000000000e+00 +2.0783808195e+03 2.0783808195e+03 2.5500000000e-03 0.0000e+00 -1.0000e+00
        2 -1    0    0  501    0 +0.0000000000e+00 -0.0000000000e+00 -2.5305875929e+03 2.5305875929e+03 2.5500000000e-03 0.0000e+00 1.0000e+00
  1000011  2    1    2    0    0 +1.8711038007e+02 +3.7265330159e+02 -7.4732068233e+01 2.2896315854e+03 2.2500993617e+03 2.6492e+03 0.0000e+00
 -1000011  2    1    2    0    0 -1.8711038007e+02 -3.7265330159e+02 -3.7747470522e+02 2.3193368270e+03 2.2501011947e+03 5.4895e+02 0.0000e+00
       11  1    3    3    0    0 -3.7337270667e-02 +5.4738178289e-02 -8.3007183280e-02 1.0621107777e-01 5.1100000000e-04 0.0000e+00 1.0000e+00
  1000022  1    3    3    0    0 +1.8714771734e+02 +3.7259856341e+02 -7.4649061050e+01 2.2895253744e+03 2.2500000000e+03 0.0000e+00 0.0000e+00
      -11  1    4    4    0    0 -4.6938177281e-02 +5.7728176021e-02 +4.2620142299e-02 8.5746558190e-02 5.1100000000e-04 0.0000e+00 -1.0000e+00
  1000022  1    4    4    0    0 -1.8706344190e+02 -3.7271102976e+02 -3.7751732536e+02 2.3192510804e+03 2.2500000000e+03 0.0000e+00 0.0000e+00
<mgrwt>
<rscale>  0 0.45867307E+04</rscale>
<asrwt>0</asrwt>
<pdfrwt beam="1">  1        2 0.38932117E+00 0.45867307E+04</pdfrwt>
<pdfrwt beam="2">  1       -2 0.31975089E+00 0.45867307E+04</pdfrwt>
<totfact> 0.60414213E-02</totfact>
</mgrwt>
</event>
<event>
 8      1 +1.2359593e-08 4.97993600e+03 7.81860800e-03 7.83161000e-02
       -2 -1    0    0    0  501 -0.0000000000e+00 +0.0000000000e+00 +1.4030214547e+03 1.4030214547e+03 2.5500000000e-03 0.0000e+00 -1.0000e+00
        2 -1    0    0  501    0 +0.0000000000e+00 -0.0000000000e+00 -4.4189916415e+03 4.4189916415e+03 2.5500000000e-03 0.0000e+00 1.0000e+00
  1000011  2    1    2    0    0 -4.2014988253e+02 +4.8015549549e+02 -2.5068008250e+03 3.4284205321e+03 2.2500981634e+03 4.4323e+03 0.0000e+00
 -1000011  2    1    2    0    0 +4.2014988253e+02 -4.8015549549e+02 -5.0916936180e+02 2.3935925642e+03 2.2501014867e+03 3.1713e+02 0.0000e+00
       11  1    3    3    0    0 +5.8223587379e-02 +4.7750933266e-02 -1.8245884276e-01 1.9738700011e-01 5.1100000000e-04 0.0000e+00 1.0000e+00
  1000022  1    3    3    0    0 -4.2020810612e+02 +4.8010774455e+02 -2.5066183662e+03 3.4282231451e+03 2.2500000000e+03 0.0000e+00 0.0000e+00
      -11  1    4    4    0    0 +1.7524692078e-02 -2.3568113038e-02 +8.0837289640e-02 8.6008715561e-02 5.1100000000e-04 0.0000e+00 -1.0000e+00
  1000022  1    4    4    0    0 +4.2013235784e+02 -4.8013192737e+02 -5.0925019909e+02 2.3935065555e+03 2.2500000000e+03 0.0000e+00 0.0000e+00
<mgrwt>
<rscale>  0 0.49799358E+04</rscale>
<asrwt>0</asrwt>
<pdfrwt beam="1">  1        2 0.67984486E+00 0.49799358E+04</pdfrwt>
<pdfrwt beam="2">  1       -2 0.21584946E+00 0.49799358E+04</pdfrwt>
<totfact> 0.11181884E-02</totfact>
</mgrwt>
</event>
<event>
 8      1 +1.2359593e-08 4.54608400e+03 7.81860800e-03 7.90261800e-02
       -2 -1    0    0    0  501 -0.0000000000e+00 +0.0000000000e+00 +1.4355561924e+03 1.4355561924e+03 2.5500000000e-03 0.0000e+00 -1.0000e+00
        2 -1    0    0  501    0 +0.0000000000e+00 -0.0000000000e+00 -3.5991072613e+03 3.5991072613e+03 2.5500000000e-03 0.0000e+00 1.0000e+00
  1000011  2    1    2    0    0 -2.1149209537e+01 +1.3700295001e+02 -7.5975283551e+02 2.3789495104e+03 2.2501020654e+03 2.1390e+03 0.0000e+00
 -1000011  2    1    2    0    0 +2.1149209537e+01 -1.3700295001e+02 -1.4037982334e+03 2.6557139433e+03 2.2500999914e+03 1.2880e+03 0.0000e+00
       11  1    3    3    0    0 -7.6377782604e-02 +7.4095580419e-02 -4.8760887551e-02 1.1705385687e-01 5.1100000000e-04 0.0000e+00 1.0000e+00
  1000022  1    3    3    0    0 -2.1072831754e+01 +1.3692885442e+02 -7.5970407462e+02 2.3788324566e+03 2.2500000000e+03 0.0000e+00 0.0000e+00
      -11  1    4    4    0    0 +3.2200475538e-02 +2.7402153452e-02 +4.3420770857e-02 6.0608356431e-02 5.1100000000e-04 0.0000e+00 -1.0000e+00
  1000022  1    4    4    0    0 +2.1117009061e+01 -1.3703035216e+02 -1.4038416541e+03 2.6556533349e+03 2.2500000000e+03 0.0000e+00 0.0000e+00
<mgrwt>
<rscale>  0 0.45460843E+04</rscale>
<asrwt>0</asrwt>
<pdfrwt beam="1">  1        2 0.55370881E+00 0.45460843E+04</pdfrwt>
<pdfrwt beam="2">  1       -2 0.22085480E+00 0.45460843E+04</pdfrwt>
<totfact> 0.50830633E-02</totfact>
</mgrwt>
</event>
<event>
 8      1 +1.2359593e-08 5.04240000e+03 7.81860800e-03 7.82200000e-02
       -1 -1    0    0    0  501 -0.0000000000e+00 +0.0000000000e+00 +2.2713934282e+03 2.2713934282e+03 5.0400000000e-03 0.0000e+00 -1.0000e+00
        1 -1    0    0  501    0 +0.0000000000e+00 -0.0000000000e+00 -2.7984805282e+03 2.7984805282e+03 5.0400000000e-03 0.0000e+00 1.0000e+00
  1000011  2    1    2    0    0 +3.6959344969e+02 -7.1437758081e+02 -1.0720089167e+03 2.6189922240e+03 2.2501072210e+03 1.1657e+03 0.0000e+00
 -1000011  2    1    2    0    0 -3.6959344969e+02 +7.1437758081e+02 +5.4492181671e+02 2.4508817323e+03 2.2500992941e+03 1.1025e+03 0.0000e+00
       11  1    3    3    0    0 -4.1525308214e-02 +5.8299291526e-02 -6.6027432734e-02 9.7380908041e-02 5.1100000000e-04 0.0000e+00 1.0000e+00
  1000022  1    3    3    0    0 +3.6963497500e+02 -7.1443588010e+02 -1.0719428893e+03 2.6188948431e+03 2.2500000000e+03 0.0000e+00 0.0000e+00
      -11  1    4    4    0    0 -2.7712288269e-03 -4.5506724802e-02 +8.6141766131e-02 9.7463872854e-02 5.1100000000e-04 0.0000e+00 -1.0000e+00
  1000022  1    4    4    0    0 -3.6959067846e+02 +7.1442308754e+02 +5.4483567495e+02 2.4507842684e+03 2.2500000000e+03 0.0000e+00 0.0000e+00
<mgrwt>
<rscale>  0 0.50424003E+04</rscale>
<asrwt>0</asrwt>
<pdfrwt beam="1">  1        1 0.43053546E+00 0.50424003E+04</pdfrwt>
<pdfrwt beam="2">  1       -1 0.34944514E+00 0.50424003E+04</pdfrwt>
<totfact> 0.94210999E-03</totfact>
</mgrwt>
</event>
<event>
 8      1 +1.2359593e-08 5.49328200e+03 7.81860800e-03 7.75661400e-02
        2 -1    0    0  501    0 +0.0000000000e+00 +0.0000000000e+00 +3.1763047122e+03 3.1763047122e+03 2.5500000000e-03 0.0000e+00 1.0000e+00
       -2 -1    0    0    0  501 -0.0000000000e+00 -0.0000000000e+00 -2.3750988843e+03 2.3750988843e+03 2.5500000000e-03 0.0000e+00 -1.0000e+00
  1000011  2    1    2    0    0 +3.1632463612e+02 -1.1497814387e+03 -6.3937514625e+02 2.6256073220e+03 2.2501010199e+03 3.3535e+02 0.0000e+00
 -1000011  2    1    2    0    0 -3.1632463612e+02 +1.1497814387e+03 +1.4405809742e+03 2.9257962745e+03 2.2501003676e+03 4.9706e+02 0.0000e+00
       11  1    3    3    0    0 +7.6234686518e-02 -1.2976059851e-01 +7.7272505348e-03 1.5069675353e-01 5.1100000000e-04 0.0000e+00 1.0000e+00
  1000022  1    3    3    0    0 +3.1624840143e+02 -1.1496516781e+03 -6.3938287350e+02 2.6254566253e+03 2.2500000000e+03 0.0000e+00 0.0000e+00
      -11  1    4    4    0    0 -3.0815011679e-02 +1.4922263373e-01 +3.4804183205e-02 1.5629635720e-01 5.1100000000e-04 0.0000e+00 -1.0000e+00
  1000022  1    4    4    0    0 -3.1629382110e+02 +1.1496322160e+03 +1.4405461700e+03 2.9256399781e+03 2.2500000000e+03 0.0000e+00 0.0000e+00
<mgrwt>
<rscale>  0 0.54932824E+04</rscale>
<asrwt>0</asrwt>
<pdfrwt beam="1">  1        2 0.48866226E+00 0.54932824E+04</pdfrwt>
<pdfrwt beam="2">  1       -2 0.36539983E+00 0.54932824E+04</pdfrwt>
<totfact> 0.11681177E-02</totfact>
</mgrwt>
</event>
<event>
 8      1 +1.2359593e-08 7.24617000e+03 7.81860800e-03 7.55256700e-02
        2 -1    0    0  501    0 +0.0000000000e+00 +0.0000000000e+00 +3.5714583043e+03 3.5714583043e+03 2.5500000000e-03 0.0000e+00 1.0000e+00
       -2 -1    0    0    0  501 -0.0000000000e+00 -0.0000000000e+00 -3.6754575891e+03 3.6754575891e+03 2.5500000000e-03 0.0000e+00 -1.0000e+00
  1000011  2    1    2    0    0 +3.4435095269e+02 +3.1173039825e+02 -2.8537214941e+03 3.6636663858e+03 2.2501047978e+03 2.3211e+03 0.0000e+00
 -1000011  2    1    2    0    0 -3.4435095269e+02 -3.1173039825e+02 +2.7497222093e+03 3.5832495076e+03 2.2501003056e+03 1.0210e+03 0.0000e+00
       11  1    3    3    0    0 +8.7361320937e-02 +4.8410938183e-02 -3.9370401510e-02 1.0735878395e-01 5.1100000000e-04 0.0000e+00 1.0000e+00
  1000022  1    3    3    0    0 +3.4426359137e+02 +3.1168198731e+02 -2.8536821237e+03 3.6635590270e+03 2.2500000000e+03 0.0000e+00 0.0000e+00
      -11  1    4    4    0    0 -9.0260175802e-02 +1.5874773477e-02 +3.7415245720e-02 9.8990249054e-02 5.1100000000e-04 0.0000e+00 -1.0000e+00
  1000022  1    4    4    0    0 -3.4426069251e+02 -3.1174627303e+02 +2.7496847941e+03 3.5831505173e+03 2.2500000000e+03 0.0000e+00 0.0000e+00
<mgrwt>
<rscale>  0 0.72461696E+04</rscale>
<asrwt>0</asrwt>
<pdfrwt beam="1">  1        2 0.54945512E+00 0.72461696E+04</pdfrwt>
<pdfrwt beam="2">  1       -2 0.56545501E+00 0.72461696E+04</pdfrwt>
<totfact> 0.32536103E-04</totfact>
</mgrwt>
</event>
<event>
 8      1 +1.2359593e-08 4.77329300e+03 7.81860800e-03 7.86446300e-02
       -2 -1    0    0    0  501 -0.0000000000e+00 +0.0000000000e+00 +1.8783977685e+03 1.8783977685e+03 2.5500000000e-03 0.0000e+00 -1.0000e+00
        2 -1    0    0  501    0 +0.0000000000e+00 -0.0000000000e+00 -3.0324146913e+03 3.0324146913e+03 2.5500000000e-03 0.0000e+00 1.0000e+00
  1000011  2    1    2    0    0 -1.4906258515e+02 +7.6308815250e+02 -7.5108104088e+02 2.4963147164e+03 2.2500980535e+03 1.8236e+01 0.0000e+00
 -1000011  2    1    2    0    0 +1.4906258515e+02 -7.6308815250e+02 -4.0293588190e+02 2.4144977434e+03 2.2500930748e+03 1.3044e+03 0.0000e+00
       11  1    3    3    0    0 +6.0302346765e-02 +9.8360995937e-02 -7.4185226679e-02 1.3716765943e-01 5.1100000000e-04 0.0000e+00 1.0000e+00
  1000022  1    3    3    0    0 -1.4912288749e+02 +7.6298979151e+02 -7.5100685565e+02 2.4961775487e+03 2.2500000000e+03 0.0000e+00 0.0000e+00
      -11  1    4    4    0    0 +4.0562972561e-02 -2.1586440415e-03 +6.7378738107e-02 7.8677632179e-02 5.1100000000e-04 0.0000e+00 -1.0000e+00
  1000022  1    4    4    0    0 +1.4902202217e+02 -7.6308599386e+02 -4.0300326063e+02 2.4144190658e+03 2.2500000000e+03 0.0000e+00 0.0000e+00
<mgrwt>
<rscale>  0 0.47732928E+04</rscale>
<asrwt>0</asrwt>
<pdfrwt beam="1">  1        2 0.46652534E+00 0.47732928E+04</pdfrwt>
<pdfrwt beam="2">  1       -2 0.28898427E+00 0.47732928E+04</pdfrwt>
<totfact> 0.45678321E-02</totfact>
</mgrwt>
</event>
<event>
 8      1 +1.2359593e-08 5.54479300e+03 7.81860800e-03 7.74955600e-02
        2 -1    0    0  501    0 +0.0000000000e+00 +0.0000000000e+00 +3.1874360091e+03 3.1874360091e+03 2.5500000000e-03 0.0000e+00 1.0000e+00
       -2 -1    0    0    0  501 -0.0000000000e+00 -0.0000000000e+00 -2.4113999916e+03 2.4113999916e+03 2.5500000000e-03 0.0000e+00 -1.0000e+00
  1000011  2    1    2    0    0 -3.0326467914e+01 -2.4606292942e+02 -1.2281156541e+03 2.5754205140e+03 2.2501235753e+03 2.6361e+02 0.0000e+00
 -1000011  2    1    2    0    0 +3.0326467914e+01 +2.4606292942e+02 +2.0041516716e+03 3.0234154868e+03 2.2501001361e+03 5.5819e+03 0.0000e+00
       11  1    3    3    0    0 -3.7505120210e-02 +2.8893746482e-02 +6.0476529207e-02 7.6805949771e-02 5.1100000000e-04 0.0000e+00 1.0000e+00
  1000022  1    3    3    0    0 -3.0288962794e+01 -2.4609182317e+02 -1.2281761306e+03 2.5753437080e+03 2.2500000000e+03 0.0000e+00 0.0000e+00
      -11  1    4    4    0    0 +5.5961191974e-02 -7.3399899408e-02 +8.2503696819e-02 1.2379951937e-01 5.1100000000e-04 0.0000e+00 -1.0000e+00
  1000022  1    4    4    0    0 +3.0270506722e+01 +2.4613632932e+02 +2.0040691680e+03 3.0232916872e+03 2.2500000000e+03 0.0000e+00 0.0000e+00
<mgrwt>
<rscale>  0 0.55447933E+04</rscale>
<asrwt>0</asrwt>
<pdfrwt beam="1">  1        2 0.49037477E+00 0.55447933E+04</pdfrwt>
<pdfrwt beam="2">  1       -2 0.37098461E+00 0.55447933E+04</pdfrwt>
<totfact> 0.10538593E-02</totfact>
</mgrwt>
</event>
<event>
 8      1 +1.2359593e-08 5.06744800e+03 7.81860800e-03 7.81818600e-02
        2 -1    0    0  501    0 +0.0000000000e+00 +0.0000000000e+00 +4.2638291974e+03 4.2638291974e+03 2.5500000000e-03 0.0000e+00 1.0000e+00
       -2 -1    0    0    0  501 -0.0000000000e+00 -0.0000000000e+00 -1.5056316577e+03 1.5056316577e+03 2.5500000000e-03 0.0000e+00 -1.0000e+00
  1000011  2    1    2    0    0 -2.5851204222e+02 +4.7330850015e+02 +2.5545796948e+03 3.4466910351e+03 2.2501005004e+03 9.6949e+02 0.0000e+00
 -1000011  2    1    2    0    0 +2.5851204222e+02 -4.7330850015e+02 +2.0361784490e+02 2.3227698200e+03 2.2500999973e+03 1.0687e+02 0.0000e+00
       11  1    3    3    0    0 +2.0453675673e-02 +8.1592851733e-02 +2.3425822032e-01 2.4890343709e-01 5.1100000000e-04 0.0000e+00 1.0000e+00
  1000022  1    3    3    0    0 -2.5853249590e+02 +4.7322690730e+02 +2.5543454366e+03 3.4464421316e+03 2.2500000000e+03 0.0000e+00 0.0000e+00
      -11  1    4    4    0    0 -1.5792978699e-02 -9.6369664336e-02 -5.1188128165e-02 1.1025885742e-01 5.1100000000e-04 0.0000e+00 -1.0000e+00
  1000022  1    4    4    0    0 +2.5852783520e+02 -4.7321213048e+02 +2.0366903303e+02 2.3226595612e+03 2.2500000000e+03 0.0000e+00 0.0000e+00
<mgrwt>
<rscale>  0 0.50674476E+04</rscale>
<asrwt>0</asrwt>
<pdfrwt beam="1">  1        2 0.65597370E+00 0.50674476E+04</pdfrwt>
<pdfrwt beam="2">  1       -2 0.23163565E+00 0.50674476E+04</pdfrwt>
<totfact> 0.12270914E-02</totfact>
</mgrwt>
</event>
<event>
 8      1 +1.2359593e-08 4.63241400e+03 7.81860800e-03 7.88785600e-02
        2 -1    0    0  501    0 +0.0000000000e+00 +0.0000000000e+00 +3.3804031233e+03 3.3804031233e+03 2.5500000000e-03 0.0000e+00 1.0000e+00
       -2 -1    0    0    0  501 -0.0000000000e+00 -0.0000000000e+00 -1.5870337431e+03 1.5870337431e+03 2.5500000000e-03 0.0000e+00 -1.0000e+00
  1000011  2    1    2    0    0 +2.0556804468e+02 -5.6619298564e+00 +3.5032911335e+02 2.2864660138e+03 2.2500902351e+03 1.7873e+03 0.0000e+00
 -1000011  2    1    2    0    0 -2.0556804468e+02 +5.6619298564e+00 +1.4430402669e+03 2.6809708526e+03 2.2500998249e+03 2.2128e+02 0.0000e+00
       11  1    3    3    0    0 +7.5680798965e-02 -5.8081676700e-02 -2.1002721779e-03 9.5423981878e-02 5.1100000000e-04 0.0000e+00 1.0000e+00
  1000022  1    3    3    0    0 +2.0549236388e+02 -5.6038481797e+00 +3.5033121363e+02 2.2863705898e+03 2.2500000000e+03 0.0000e+00 0.0000e+00
      -11  1    4    4    0    0 -8.3442899981e-02 +6.5629878448e-02 +8.5798551824e-02 1.3649780513e-01 5.1100000000e-04 0.0000e+00 -1.0000e+00
  1000022  1    4    4    0    0 -2.0548460178e+02 +5.5962999780e+00 +1.4429544683e+03 2.6808343548e+03 2.2500000000e+03 0.0000e+00 0.0000e+00
<mgrwt>
<rscale>  0 0.46324135E+04</rscale>
<asrwt>0</asrwt>
<pdfrwt beam="1">  1        2 0.52006202E+00 0.46324135E+04</pdfrwt>
<pdfrwt beam="2">  1       -2 0.24415904E+00 0.46324135E+04</pdfrwt>
<totfact> 0.51380616E-02</totfact>
</mgrwt>
</event>
<event>
 8      1 +1.2359593e-08 5.64404200e+03 7.81860800e-03 7.73617400e-02
        2 -1    0    0  501    0 +0.0000000000e+00 +0.0000000000e+00 +3.5440802434e+03 3.5440802434e+03 2.5500000000e-03 0.0000e+00 1.0000e+00
       -2 -1    0    0    0  501 -0.0000000000e+00 -0.0000000000e+00 -2.2470715333e+03 2.2470715333e+03 2.5500000000e-03 0.0000e+00 -1.0000e+00
  1000011  2    1    2    0    0 -9.1969905160e+02 +2.5322229722e+02 -7.9925998085e+02 2.5713298442e+03 2.2501006141e+03 9.5847e+02 0.0000e+00
 -1000011  2    1    2    0    0 +9.1969905160e+02 -2.5322229722e+02 +2.0962686910e+03 3.2198219324e+03 2.2500984366e+03 6.4605e+02 0.0000e+00
       11  1    3    3    0    0 +6.2264563611e-02 +3.5588088599e-02 -3.7511743965e-02 8.0936887152e-02 5.1100000000e-04 0.0000e+00 1.0000e+00
  1000022  1    3    3    0    0 -9.1976131616e+02 +2.5318670914e+02 -7.9922246911e+02 2.5712489073e+03 2.2500000000e+03 0.0000e+00 0.0000e+00
      -11  1    4    4    0    0 +6.3096557591e-02 +7.6584807872e-02 +1.4201037116e-01 1.7324437859e-01 5.1100000000e-04 0.0000e+00 -1.0000e+00
  1000022  1    4    4    0    0 +9.1963595504e+02 -2.5329888203e+02 +2.0961266806e+03 3.2196486881e+03 2.2500000000e+03 0.0000e+00 0.0000e+00
<mgrwt>
<rscale>  0 0.56440418E+04</rscale>
<asrwt>0</asrwt>
<pdfrwt beam="1">  1        2 0.54524312E+00 0.56440418E+04</pdfrwt>
<pdfrwt beam="2">  1       -2 0.34570331E+00 0.56440418E+04</pdfrwt>
<totfact> 0.86522300E-03</totfact>
</mgrwt>
</event>
<event>
 8      1 +1.2359593e-08 5.17872100e+03 7.81860800e-03 7.80151400e-02
        2 -1    0    0  501    0 +0.0000000000e+00 +0.0000000000e+00 +3.4593263476e+03 3.4593263476e+03 2.5500000000e-03 0.0000e+00 1.0000e+00
       -2 -1    0    0    0  501 -0.0000000000e+00 -0.0000000000e+00 -1.9381771416e+03 1.9381771416e+03 2.5500000000e-03 0.0000e+00 -1.0000e+00
  1000011  2    1    2    0    0 -9.7332549259e+02 +6.0884192459e+02 +1.3536530055e+03 2.8658981901e+03 2.2500988807e+03 2.1081e+03 0.0000e+00
 -1000011  2    1    2    0    0 +9.7332549259e+02 -6.0884192459e+02 +1.6749620043e+02 2.5316052991e+03 2.2500932002e+03 1.6694e+02 0.0000e+00
       11  1    3    3    0    0 -8.3216133310e-02 +9.8599369769e-02 +1.4942102190e-01 1.9741748447e-01 5.1100000000e-04 0.0000e+00 1.0000e+00
  1000022  1    3    3    0    0 -9.7324227646e+02 +6.0874332522e+02 +1.3535035845e+03 2.8657007726e+03 2.2500000000e+03 0.0000e+00 0.0000e+00
      -11  1    4    4    0    0 +1.0380487028e-01 +6.1912356732e-03 -5.4957293337e-02 1.1761950327e-01 5.1100000000e-04 0.0000e+00 -1.0000e+00
  1000022  1    4    4    0    0 +9.7322168772e+02 -6.0884811583e+02 +1.6755115773e+02 2.5314876796e+03 2.2500000000e+03 0.0000e+00 0.0000e+00
<mgrwt>
<rscale>  0 0.51787208E+04</rscale>
<asrwt>0</asrwt>
<pdfrwt beam="1">  1        2 0.53220404E+00 0.51787208E+04</pdfrwt>
<pdfrwt beam="2">  1       -2 0.29818110E+00 0.51787208E+04</pdfrwt>
<totfact> 0.20275213E-02</totfact>
</mgrwt>
</event>
<event>
 8      1 +1.2359593e-08 4.95422300e+03 7.81860800e-03 7.83560800e-02
        2 -1    0    0  501    0 +0.0000000000e+00 +0.0000000000e+00 +3.0188537436e+03 3.0188537436e+03 2.5500000000e-03 0.0000e+00 1.0000e+00
       -2 -1    0    0    0  501 -0.0000000000e+00 -0.0000000000e+00 -2.0325861326e+03 2.0325861326e+03 2.5500000000e-03 0.0000e+00 -1.0000e+00
  1000011  2    1    2    0    0 +4.2346775501e+02 -9.1734759652e+02 +2.5998413843e+02 2.4802009959e+03 2.2501008146e+03 1.5157e+03 0.0000e+00
 -1000011  2    1    2    0    0 -4.2346775501e+02 +9.1734759652e+02 +7.2628347255e+02 2.5712388802e+03 2.2500955856e+03 4.3576e+02 0.0000e+00
       11  1    3    3    0    0 +4.6428331940e-02 -1.0916576553e-01 +9.0582307849e-02 1.4925873416e-01 5.1100000000e-04 0.0000e+00 1.0000e+00
  1000022  1    3    3    0    0 +4.2342132667e+02 -9.1723843075e+02 +2.5989355612e+02 2.4800517372e+03 2.2500000000e+03 0.0000e+00 0.0000e+00
      -11  1    4    4    0    0 +5.4141645287e-03 +5.6602915049e-02 -6.3278340564e-02 8.5074157750e-02 5.1100000000e-04 0.0000e+00 -1.0000e+00
  1000022  1    4    4    0    0 -4.2347316917e+02 +9.1729099360e+02 +7.2634675089e+02 2.5711538061e+03 2.2500000000e+03 0.0000e+00 0.0000e+00
<mgrwt>
<rscale>  0 0.49542225E+04</rscale>
<asrwt>0</asrwt>
<pdfrwt beam="1">  1        2 0.46443904E+00 0.49542225E+04</pdfrwt>
<pdfrwt beam="2">  1       -2 0.31270556E+00 0.49542225E+04</pdfrwt>
<totfact> 0.32859809E-02</totfact>
</mgrwt>
</event>
<event>
 8      1 +1.2359593e-08 5.57498800e+03 7.81860800e-03 7.74545400e-02
        1 -1    0    0  501    0 +0.0000000000e+00 +0.0000000000e+00 +2.9631900590e+03 2.9631900590e+03 5.0400000000e-03 0.0000e+00 1.0000e+00
       -1 -1    0    0    0  501 -0.0000000000e+00 -0.0000000000e+00 -2.6222156132e+03 2.6222156132e+03 5.0400000000e-03 0.0000e+00 -1.0000e+00
  1000011  2    1    2    0    0 +9.1302039484e+02 -1.2908081296e+03 -2.8575745694e+02 2.7648495981e+03 2.2500986882e+03 1.9800e+03 0.0000e+00
 -1000011  2    1    2    0    0 -9.1302039484e+02 +1.2908081296e+03 +6.2673190273e+02 2.8205560741e+03 2.2501004022e+03 7.0068e+01 0.0000e+00
       11  1    3    3    0    0 +9.2700952695e-02 +2.9602442128e-02 -1.8004672114e-02 9.8965650123e-02 5.1100000000e-04 0.0000e+00 1.0000e+00
  1000022  1    3    3    0    0 +9.1292769389e+02 -1.2908377321e+03 -2.8573945227e+02 2.7647506324e+03 2.2500000000e+03 0.0000e+00 0.0000e+00
      -11  1    4    4    0    0 +4.4756010986e-02 +7.2141088415e-02 -3.3345565835e-02 9.1211975365e-02 5.1100000000e-04 0.0000e+00 -1.0000e+00
  1000022  1    4    4    0    0 -9.1306515085e+02 +1.2907359885e+03 +6.2676524830e+02 2.8204648621e+03 2.2500000000e+03 0.0000e+00 0.0000e+00
<mgrwt>
<rscale>  0 0.55749882E+04</rscale>
<asrwt>0</asrwt>
<pdfrwt beam="1">  1        1 0.45587539E+00 0.55749882E+04</pdfrwt>
<pdfrwt beam="2">  1       -1 0.40341779E+00 0.55749882E+04</pdfrwt>
<totfact> 0.29767596E-03</totfact>
</mgrwt>
</event>
<event>
 8      1 +1.2359593e-08 4.87422700e+03 7.81860800e-03 7.84820700e-02
        2 -1    0    0  501    0 +0.0000000000e+00 +0.0000000000e+00 +3.9050320281e+03 3.9050320281e+03 2.5500000000e-03 0.0000e+00 1.0000e+00
       -2 -1    0    0    0  501 -0.0000000000e+00 -0.0000000000e+00 -1.5209920669e+03 1.5209920669e+03 2.5500000000e-03 0.0000e+00 -1.0000e+00
  1000011  2    1    2    0    0 +7.1045145204e+01 +5.2516283464e+02 +2.0512300542e+03 3.0905249465e+03 2.2501013964e+03 5.0291e+02 0.0000e+00
 -1000011  2    1    2    0    0 -7.1045145204e+01 -5.2516283464e+02 +3.3280990704e+02 2.3354991485e+03 2.2501000917e+03 4.1387e+03 0.0000e+00
       11  1    3    3    0    0 -4.1990099324e-02 -6.1016094205e-02 +2.2474958850e-02 7.7404887023e-02 5.1100000000e-04 0.0000e+00 1.0000e+00
  1000022  1    3    3    0    0 +7.1087135303e+01 +5.2522385074e+02 +2.0512075792e+03 3.0904475416e+03 2.2500000000e+03 0.0000e+00 0.0000e+00
      -11  1    4    4    0    0 -2.2885825367e-02 +4.5606720428e-02 -5.9507379739e-02 7.8390833401e-02 5.1100000000e-04 0.0000e+00 -1.0000e+00
  1000022  1    4    4    0    0 -7.1022259379e+01 -5.2520844136e+02 +3.3286941442e+02 2.3354207576e+03 2.2500000000e+03 0.0000e+00 0.0000e+00
<mgrwt>
<rscale>  0 0.48742272E+04</rscale>
<asrwt>0</asrwt>
<pdfrwt beam="1">  1        2 0.60077416E+00 0.48742272E+04</pdfrwt>
<pdfrwt beam="2">  1       -2 0.23399878E+00 0.48742272E+04</pdfrwt>
<totfact> 0.24082276E-02</totfact>
</mgrwt>
</event>
<event>
 8      1 +1.2359593e-08 4.56324300e+03 7.81860800e-03 7.89965700e-02
       -2 -1    0    0    0  501 -0.0000000000e+00 +0.0000000000e+00 +4.4719848618e+03 4.4719848618e+03 2.5500000000e-03 0.0000e+00 1.0000e+00
        2 -1    0    0  501    0 +0.0000000000e+00 -0.0000000000e+00 -1.1640910127e+03 1.1640910127e+03 2.5500000000e-03 0.0000e+00 -1.0000e+00
  1000011  2    1    2    0    0 +3.5179955604e+01 +3.3816269386e+02 +1.8578105377e+03 2.9376865258e+03 2.2501001074e+03 3.8803e+03 0.0000e+00
 -1000011  2    1    2    0    0 -3.5179955604e+01 -3.3816269386e+02 +1.4500833115e+03 2.6983893487e+03 2.2501048487e+03 2.7919e+02 0.0000e+00
       11  1    3    3    0    0 -2.4366108999e-02 -7.7456766754e-02 +3.0444681828e-02 8.6720225041e-02 5.1100000000e-04 0.0000e+00 1.0000e+00
  1000022  1    3    3    0    0 +3.5204321713e+01 +3.3824015063e+02 +1.8577800930e+03 2.9375998056e+03 2.2500000000e+03 0.0000e+00 0.0000e+00
      -11  1    4    4    0    0 -3.0830063727e-03 -3.5217650378e-02 -5.2773187988e-02 6.3522107391e-02 5.1100000000e-04 0.0000e+00 -1.0000e+00
  1000022  1    4    4    0    0 -3.5176872597e+01 -3.3812747621e+02 +1.4501360846e+03 2.6983258266e+03 2.2500000000e+03 0.0000e+00 0.0000e+00
<mgrwt>
<rscale>  0 0.45632433E+04</rscale>
<asrwt>0</asrwt>
<pdfrwt beam="1">  1        2 0.17909092E+00 0.45632433E+04</pdfrwt>
<pdfrwt beam="2">  1       -2 0.68799767E+00 0.45632433E+04</pdfrwt>
<totfact> 0.37789244E-03</totfact>
</mgrwt>
</event>
<event>
 8      1 +1.2359593e-08 4.93231000e+03 7.81860800e-03 7.83903500e-02
       -2 -1    0    0    0  501 -0.0000000000e+00 +0.0000000000e+00 +2.1257898821e+03 2.1257898821e+03 2.5500000000e-03 0.0000e+00 -1.0000e+00
        2 -1    0    0  501    0 +0.0000000000e+00 -0.0000000000e+00 -2.8610169926e+03 2.8610169926e+03 2.5500000000e-03 0.0000e+00 1.0000e+00
  1000011  2    1    2    0    0 -8.6995671695e+00 -5.2304041939e+02 -1.2404727197e+03 2.6220930606e+03 2.2501005505e+03 2.5012e+03 0.0000e+00
 -1000011  2    1    2    0    0 +8.6995671695e+00 +5.2304041939e+02 +5.0524560926e+02 2.3647138140e+03 2.2501002942e+03 1.6201e+03 0.0000e+00
       11  1    3    3    0    0 -3.1836251633e-02 +2.6473459297e-02 -1.4276397279e-01 1.4864791909e-01 5.1100000000e-04 0.0000e+00 1.0000e+00
  1000022  1    3    3    0    0 -8.6677309179e+00 -5.2306689285e+02 -1.2403299558e+03 2.6219444127e+03 2.2500000000e+03 0.0000e+00 0.0000e+00
      -11  1    4    4    0    0 +6.7661556827e-02 +5.8125276607e-02 +9.2097294756e-02 1.2821390862e-01 5.1100000000e-04 0.0000e+00 -1.0000e+00
  1000022  1    4    4    0    0 +8.6319056127e+00 +5.2298229411e+02 +5.0515351196e+02 2.3645856001e+03 2.2500000000e+03 0.0000e+00 0.0000e+00
<mgrwt>
<rscale>  0 0.49323102E+04</rscale>
<asrwt>0</asrwt>
<pdfrwt beam="1">  1        2 0.44015646E+00 0.49323102E+04</pdfrwt>
<pdfrwt beam="2">  1       -2 0.32704460E+00 0.49323102E+04</pdfrwt>
<totfact> 0.33639768E-02</totfact>
</mgrwt>
</event>
<event>
 8      1 +1.2359593e-08 4.87034500e+03 7.81860800e-03 7.84882500e-02
        2 -1    0    0  501    0 +0.0000000000e+00 +0.0000000000e+00 +2.3910190231e+03 2.3910190231e+03 2.5500000000e-03 0.0000e+00 1.0000e+00
       -2 -1    0    0    0  501 -0.0000000000e+00 -0.0000000000e+00 -2.4801410887e+03 2.4801410887e+03 2.5500000000e-03 0.0000e+00 -1.0000e+00
  1000011  2    1    2    0    0 -5.3855444917e+02 +7.2503771555e+02 -2.7130912767e+02 2.4397279301e+03 2.2500984748e+03 1.8495e+02 0.0000e+00
 -1000011  2    1    2    0    0 +5.3855444917e+02 -7.2503771555e+02 +1.8218706203e+02 2.4314321817e+03 2.2500999411e+03 1.5979e+03 0.0000e+00
       11  1    3    3    0    0 +1.9535475410e-02 +1.0378195877e-01 +3.9941629672e-02 1.1290670562e-01 5.1100000000e-04 0.0000e+00 1.0000e+00
  1000022  1    3    3    0    0 -5.3857398464e+02 +7.2493393359e+02 -2.7134906930e+02 2.4396150234e+03 2.2500000000e+03 0.0000e+00 0.0000e+00
      -11  1    4    4    0    0 +1.2577119685e-01 -4.0747927158e-02 +2.3242836989e-02 1.3423590276e-01 5.1100000000e-04 0.0000e+00 -1.0000e+00
  1000022  1    4    4    0    0 +5.3842867797e+02 -7.2499696762e+02 +1.8216381920e+02 2.4312979458e+03 2.2500000000e+03 0.0000e+00 0.0000e+00
<mgrwt>
<rscale>  0 0.48703448E+04</rscale>
<asrwt>0</asrwt>
<pdfrwt beam="1">  1        2 0.36784908E+00 0.48703448E+04</pdfrwt>
<pdfrwt beam="2">  1       -2 0.38156017E+00 0.48703448E+04</pdfrwt>
<totfact> 0.28955890E-02</totfact>
</mgrwt>
</event>
<event>
 8      1 +1.2359593e-08 4.99170600e+03 7.81860800e-03 7.82978800e-02
        2 -1    0    0  501    0 +0.0000000000e+00 +0.0000000000e+00 +3.2582819690e+03 3.2582819690e+03 2.5500000000e-03 0.0000e+00 1.0000e+00
       -2 -1    0    0    0  501 -0.0000000000e+00 -0.0000000000e+00 -1.9118302880e+03 1.9118302880e+03 2.5500000000e-03 0.0000e+00 -1.0000e+00
  1000011  2    1    2    0    0 +6.5814548438e+02 -9.3604716398e+01 -2.0831945703e+02 2.3554750247e+03 2.2500996143e+03 2.0722e+02 0.0000e+00
 -1000011  2    1    2    0    0 -6.5814548438e+02 +9.3604716398e+01 +1.5547711381e+03 2.8146372323e+03 2.2501004725e+03 1.5068e+02 0.0000e+00
       11  1    3    3    0    0 -7.1593494803e-02 +8.9428192406e-03 +1.4217268676e-02 7.3539063449e-02 5.1100000000e-04 0.0000e+00 1.0000e+00
  1000022  1    3    3    0    0 +6.5821707787e+02 -9.3613659217e+01 -2.0833367430e+02 2.3554014857e+03 2.2500000000e+03 0.0000e+00 0.0000e+00
      -11  1    4    4    0    0 -2.6335431800e-02 +1.0303428072e-01 +4.9943050689e-02 1.1749122081e-01 5.1100000000e-04 0.0000e+00 -1.0000e+00
  1000022  1    4    4    0    0 -6.5811914895e+02 +9.3501682117e+01 +1.5547211950e+03 2.8145197411e+03 2.2500000000e+03 0.0000e+00 0.0000e+00
<mgrwt>
<rscale>  0 0.49917060E+04</rscale>
<asrwt>0</asrwt>
<pdfrwt beam="1">  1        2 0.50127414E+00 0.49917060E+04</pdfrwt>
<pdfrwt beam="2">  1       -2 0.29412774E+00 0.49917060E+04</pdfrwt>
<totfact> 0.29828048E-02</totfact>
</mgrwt>
</event>
<event>
 8      1 +1.2359593e-08 4.88474400e+03 7.81860800e-03 7.84653700e-02
       -2 -1    0    0    0  501 -0.0000000000e+00 +0.0000000000e+00 +1.9953429539e+03 1.9953429539e+03 2.5500000000e-03 0.0000e+00 -1.0000e+00
        2 -1    0    0  501    0 +0.0000000000e+00 -0.0000000000e+00 -2.9895518517e+03 2.9895518517e+03 2.5500000000e-03 0.0000e+00 1.0000e+00
  1000011  2    1    2    0    0 +9.1392079650e+02 +1.2323270120e+02 -7.2932944214e+02 2.5387634094e+03 2.2501023738e+03 2.6360e+02 0.0000e+00
 -1000011  2    1    2    0    0 -9.1392079650e+02 -1.2323270120e+02 -2.6487945569e+02 2.4461313963e+03 2.2501022557e+03 5.9397e+02 0.0000e+00
       11  1    3    3    0    0 +1.3726037455e-01 +5.8644941756e-02 -4.7218339697e-02 1.5655501227e-01 5.1100000000e-04 0.0000e+00 1.0000e+00
  1000022  1    3    3    0    0 +9.1378353613e+02 +1.2317405626e+02 -7.2928222380e+02 2.5386068544e+03 2.2500000000e+03 0.0000e+00 0.0000e+00
      -11  1    4    4    0    0 +4.5268042810e-02 +5.0850712566e-02 +2.3534780205e-02 7.2035667051e-02 5.1100000000e-04 0.0000e+00 -1.0000e+00
  1000022  1    4    4    0    0 -9.1396606454e+02 -1.2328355191e+02 -2.6490299047e+02 2.4460593606e+03 2.2500000000e+03 0.0000e+00 0.0000e+00
<mgrwt>
<rscale>  0 0.48847441E+04</rscale>
<asrwt>0</asrwt>
<pdfrwt beam="1">  1        2 0.45993105E+00 0.48847441E+04</pdfrwt>
<pdfrwt beam="2">  1       -2 0.30697584E+00 0.48847441E+04</pdfrwt>
<totfact> 0.37386137E-02</totfact>
</mgrwt>
</event>
<event>
 8      1 +1.2359593e-08 4.77017600e+03 7.81860800e-03 7.86497200e-02
       -2 -1    0    0    0  501 -0.0000000000e+00 +0.0000000000e+00 +1.4969660138e+03 1.4969660138e+03 2.5500000000e-03 0.0000e+00 -1.0000e+00
        2 -1    0    0  501    0 +0.0000000000e+00 -0.0000000000e+00 -3.8001157249e+03 3.8001157249e+03 2.5500000000e-03 0.0000e+00 1.0000e+00
  1000011  2    1    2    0    0 +6.6483651061e+02 -4.1549682566e+02 -1.0348487043e+03 2.5977887604e+03 2.2500998655e+03 1.2005e+01 0.0000e+00
 -1000011  2    1    2    0    0 -6.6483651061e+02 +4.1549682566e+02 -1.2683010067e+03 2.6992929783e+03 2.2500999847e+03 4.0847e+01 0.0000e+00
       11  1    3    3    0    0 +1.2924433823e-02 -1.8495786665e-02 -1.5140306008e-01 1.5307606821e-01 5.1100000000e-04 0.0000e+00 1.0000e+00
  1000022  1    3    3    0    0 +6.6482358618e+02 -4.1547832987e+02 -1.0346973013e+03 2.5976356843e+03 2.2500000000e+03 0.0000e+00 0.0000e+00
      -11  1    4    4    0    0 -7.5588708387e-03 +8.9244612091e-02 -1.3600359969e-01 1.6284648346e-01 5.1100000000e-04 0.0000e+00 -1.0000e+00
  1000022  1    4    4    0    0 -6.6482895174e+02 +4.1540758105e+02 -1.2681650031e+03 2.6991301318e+03 2.2500000000e+03 0.0000e+00 0.0000e+00
<mgrwt>
<rscale>  0 0.47701757E+04</rscale>
<asrwt>0</asrwt>
<pdfrwt beam="1">  1        2 0.58463319E+00 0.47701757E+04</pdfrwt>
<pdfrwt beam="2">  1       -2 0.23030246E+00 0.47701757E+04</pdfrwt>
<totfact> 0.30888199E-02</totfact>
</mgrwt>
</event>
<event>
 8      1 +1.2359593e-08 4.65572400e+03 7.81860800e-03 7.88392700e-02
       -2 -1    0    0    0  501 -0.0000000000e+00 +0.0000000000e+00 +1.9181054233e+03 1.9181054233e+03 2.5500000000e-03 0.0000e+00 -1.0000e+00
        2 -1    0    0  501    0 +0.0000000000e+00 -0.0000000000e+00 -2.8251528115e+03 2.8251528115e+03 2.5500000000e-03 0.0000e+00 1.0000e+00
  1000011  2    1    2    0    0 +2.3974028772e+02 -5.3142510922e+02 -3.2426096396e+02 2.3469108949e+03 2.2501016696e+03 2.8737e+03 0.0000e+00
 -1000011  2    1    2    0    0 -2.3974028772e+02 +5.3142510922e+02 -5.8278642421e+02 2.3963473400e+03 2.2501005545e+03 4.5157e+02 0.0000e+00
       11  1    3    3    0    0 +8.5899429019e-02 -4.3172864225e-02 -8.3928809049e-02 1.2762019433e-01 5.1100000000e-04 0.0000e+00 1.0000e+00
  1000022  1    3    3    0    0 +2.3965438830e+02 -5.3138193635e+02 -3.2417703515e+02 2.3467832747e+03 2.2500000000e+03 0.0000e+00 0.0000e+00
      -11  1    4    4    0    0 +4.7439547433e-02 +1.0568775842e-01 -1.5527144206e-02 1.1688355703e-01 5.1100000000e-04 0.0000e+00 -1.0000e+00
  1000022  1    4    4    0    0 -2.3978772727e+02 +5.3131942146e+02 -5.8277089706e+02 2.3962304564e+03 2.2500000000e+03 0.0000e+00 0.0000e+00
<mgrwt>
<rscale>  0 0.46557238E+04</rscale>
<asrwt>0</asrwt>
<pdfrwt beam="1">  1        2 0.43463889E+00 0.46557238E+04</pdfrwt>
<pdfrwt beam="2">  1       -2 0.29509314E+00 0.46557238E+04</pdfrwt>
<totfact> 0.56881189E-02</totfact>
</mgrwt>
</event>
<event>
 8      1 +1.2359593e-08 4.96527000e+03 7.81860800e-03 7.83388700e-02
        2 -1    0    0  501    0 +0.0000000000e+00 +0.0000000000e+00 +3.4518353941e+03 3.4518353941e+03 2.5500000000e-03 0.0000e+00 1.0000e+00
       -2 -1    0    0    0  501 -0.0000000000e+00 -0.0000000000e+00 -1.7855650391e+03 1.7855650391e+03 2.5500000000e-03 0.0000e+00 -1.0000e+00
  1000011  2    1    2    0    0 -2.1979556238e+02 +9.2369949082e+02 +1.3036730406e+03 2.7683999924e+03 2.2500987273e+03 4.4634e+02 0.0000e+00
 -1000011  2    1    2    0    0 +2.1979556238e+02 -9.2369949082e+02 +3.6259731445e+02 2.4690004408e+03 2.2501012256e+03 3.0928e+02 0.0000e+00
       11  1    3    3    0    0 -5.2084963499e-02 +1.3641434277e-01 +1.0004051606e-01 1.7700305727e-01 5.1100000000e-04 0.0000e+00 1.0000e+00
  1000022  1    3    3    0    0 -2.1974347742e+02 +9.2356307648e+02 +1.3035730001e+03 2.7682229893e+03 2.2500000000e+03 0.0000e+00 0.0000e+00
      -11  1    4    4    0    0 +8.4582051460e-02 -1.1551936913e-01 +1.2525853041e-03 1.4318057813e-01 5.1100000000e-04 0.0000e+00 -1.0000e+00
  1000022  1    4    4    0    0 +2.1971098033e+02 -9.2358397145e+02 +3.6259606186e+02 2.4688572602e+03 2.2500000000e+03 0.0000e+00 0.0000e+00
<mgrwt>
<rscale>  0 0.49652700E+04</rscale>
<asrwt>0</asrwt>
<pdfrwt beam="1">  1        2 0.53105159E+00 0.49652700E+04</pdfrwt>
<pdfrwt beam="2">  1       -2 0.27470232E+00 0.49652700E+04</pdfrwt>
<totfact> 0.29034795E-02</totfact>
</mgrwt>
</event>
<event>
 8      1 +1.2359593e-08 5.56798600e+03 7.81860800e-03 7.74640300e-02
        2 -1    0    0  501    0 +0.0000000000e+00 +0.0000000000e+00 +2.9948642505e+03 2.9948642505e+03 2.5500000000e-03 0.0000e+00 1.0000e+00
       -2 -1    0    0    0  501 -0.0000000000e+00 -0.0000000000e+00 -2.5879694852e+03 2.5879694852e+03 2.5500000000e-03 0.0000e+00 -1.0000e+00
  1000011  2    1    2    0    0 -1.4375670156e+03 +7.8804871811e+02 +2.1029925348e+02 2.7919170059e+03 2.2501011278e+03 4.9648e+02 0.0000e+00
 -1000011  2    1    2    0    0 +1.4375670156e+03 -7.8804871811e+02 +1.9659551185e+02 2.7909167297e+03 2.2500992624e+03 1.8600e+03 0.0000e+00
       11  1    3    3    0    0 +4.8809369401e-02 -1.7046055610e-02 +4.2376424555e-03 5.1876204377e-02 5.1100000000e-04 0.0000e+00 1.0000e+00
  1000022  1    3    3    0    0 -1.4376158250e+03 +7.8806576416e+02 +2.1029501584e+02 2.7918651297e+03 2.2500000000e+03 0.0000e+00 0.0000e+00
      -11  1    4    4    0    0 +9.7306798775e-02 -7.9402256484e-02 -7.6705464758e-02 1.4716426336e-01 5.1100000000e-04 0.0000e+00 -1.0000e+00
  1000022  1    4    4    0    0 +1.4374697088e+03 -7.8796931585e+02 +1.9667221731e+02 2.7907695655e+03 2.2500000000e+03 0.0000e+00 0.0000e+00
<mgrwt>
<rscale>  0 0.55679861E+04</rscale>
<asrwt>0</asrwt>
<pdfrwt beam="1">  1        2 0.46074835E+00 0.55679861E+04</pdfrwt>
<pdfrwt beam="2">  1       -2 0.39814915E+00 0.55679861E+04</pdfrwt>
<totfact> 0.93239436E-03</totfact>
</mgrwt>
</event>
<event>
 8      1 +1.2359593e-08 5.05777400e+03 7.81860800e-03 7.81965600e-02
        2 -1    0    0  501    0 +0.0000000000e+00 +0.0000000000e+00 +2.2426307442e+03 2.2426307442e+03 2.5500000000e-03 0.0000e+00 1.0000e+00
       -2 -1    0    0    0  501 -0.0000000000e+00 -0.0000000000e+00 -2.8516821955e+03 2.8516821955e+03 2.5500000000e-03 0.0000e+00 -1.0000e+00
  1000011  2    1    2    0    0 +4.9689213636e+02 -9.3587821096e+02 -7.6557704937e+02 2.6022813383e+03 2.2501089139e+03 2.6961e+02 0.0000e+00
 -1000011  2    1    2    0    0 -4.9689213636e+02 +9.3587821096e+02 +1.5652559803e+02 2.4920316014e+03 2.2501003130e+03 2.9226e+02 0.0000e+00
       11  1    3    3    0    0 -3.5470450995e-02 -1.0820679346e-01 +2.9505961042e-02 1.1763386176e-01 5.1100000000e-04 0.0000e+00 1.0000e+00
  1000022  1    3    3    0    0 +4.9692760681e+02 -9.3577000417e+02 -7.6560655533e+02 2.6021637044e+03 2.2500000000e+03 0.0000e+00 0.0000e+00
      -11  1    4    4    0    0 -5.7639694705e-02 +1.4634603239e-01 +1.3764337460e-02 1.5788987786e-01 5.1100000000e-04 0.0000e+00 -1.0000e+00
  1000022  1    4    4    0    0 -4.9683449666e+02 +9.3573186493e+02 +1.5651183369e+02 2.4918737115e+03 2.2500000000e+03 0.0000e+00 0.0000e+00
<mgrwt>
<rscale>  0 0.50577743E+04</rscale>
<asrwt>0</asrwt>
<pdfrwt beam="1">  1        2 0.34502011E+00 0.50577743E+04</pdfrwt>
<pdfrwt beam="2">  1       -2 0.43872034E+00 0.50577743E+04</pdfrwt>
<totfact> 0.14627380E-02</totfact>
</mgrwt>
</event>
<event>
 8      1 +1.2359593e-08 4.63233200e+03 7.81860800e-03 7.88787000e-02
        2 -1    0    0  501    0 +0.0000000000e+00 +0.0000000000e+00 +2.8528094407e+03 2.8528094407e+03 2.5500000000e-03 0.0000e+00 1.0000e+00
       -2 -1    0    0    0  501 -0.0000000000e+00 -0.0000000000e+00 -1.8804710570e+03 1.8804710570e+03 2.5500000000e-03 0.0000e+00 -1.0000e+00
  1000011  2    1    2    0    0 +1.0114334554e+02 +7.6609327356e+01 -5.9867741479e+01 2.2544690514e+03 2.2500994626e+03 1.5357e+02 0.0000e+00
 -1000011  2    1    2    0    0 -1.0114334554e+02 -7.6609327356e+01 +1.0322061252e+03 2.4788114463e+03 2.2501017168e+03 1.7593e+03 0.0000e+00
       11  1    3    3    0    0 -4.1739749348e-02 -6.2128167609e-02 +5.6506096066e-02 9.3783342363e-02 5.1100000000e-04 0.0000e+00 1.0000e+00
  1000022  1    3    3    0    0 +1.0118508529e+02 +7.6671455523e+01 -5.9924247575e+01 2.2543752680e+03 2.2500000000e+03 0.0000e+00 0.0000e+00
      -11  1    4    4    0    0 +1.6924809098e-02 -2.3025672266e-02 -6.0686548009e-02 6.7080168543e-02 5.1100000000e-04 0.0000e+00 -1.0000e+00
  1000022  1    4    4    0    0 -1.0116027035e+02 -7.6586301683e+01 +1.0322668117e+03 2.4787443661e+03 2.2500000000e+03 0.0000e+00 0.0000e+00
<mgrwt>
<rscale>  0 0.46323323E+04</rscale>
<asrwt>0</asrwt>
<pdfrwt beam="1">  1        2 0.43889376E+00 0.46323323E+04</pdfrwt>
<pdfrwt beam="2">  1       -2 0.28930324E+00 0.46323323E+04</pdfrwt>
<totfact> 0.59470736E-02</totfact>
</mgrwt>
</event>
<event>
 8      1 +1.2359593e-08 5.41165400e+03 7.81860800e-03 7.76796400e-02
       -2 -1    0    0    0  501 -0.0000000000e+00 +0.0000000000e+00 +1.6490127930e+03 1.6490127930e+03 2.5500000000e-03 0.0000e+00 -1.0000e+00
        2 -1    0    0  501    0 +0.0000000000e+00 -0.0000000000e+00 -4.4399288158e+03 4.4399288158e+03 2.5500000000e-03 0.0000e+00 1.0000e+00
  1000011  2    1    2    0    0 -1.1439128098e+03 -9.5439511643e+02 -1.1728661042e+03 2.9424455061e+03 2.2501031317e+03 2.7767e+03 0.0000e+00
 -1000011  2    1    2    0    0 +1.1439128098e+03 +9.5439511643e+02 -1.6180499186e+03 3.1464961026e+03 2.2500990267e+03 9.2311e+02 0.0000e+00
       11  1    3    3    0    0 -7.8986065213e-02 -4.2126879504e-02 -1.6766414943e-01 1.9006577835e-01 5.1100000000e-04 0.0000e+00 1.0000e+00
  1000022  1    3    3    0    0 -1.1438338237e+03 -9.5435298955e+02 -1.1726984401e+03 2.9422554404e+03 2.2500000000e+03 0.0000e+00 0.0000e+00
      -11  1    4    4    0    0 +4.6195064501e-02 +8.1142595239e-02 +2.8424911988e-02 9.7602976089e-02 5.1100000000e-04 0.0000e+00 -1.0000e+00
  1000022  1    4    4    0    0 +1.1438666147e+03 +9.5431397383e+02 -1.6180783435e+03 3.1463984996e+03 2.2500000000e+03 0.0000e+00 0.0000e+00
<mgrwt>
<rscale>  0 0.54116539E+04</rscale>
<asrwt>0</asrwt>
<pdfrwt beam="1">  1        2 0.68306597E+00 0.54116539E+04</pdfrwt>
<pdfrwt beam="2">  1       -2 0.25369428E+00 0.54116539E+04</pdfrwt>
<totfact> 0.59874002E-03</totfact>
</mgrwt>
</event>
<event>
 8      1 +1.2359593e-08 4.80853600e+03 7.81860800e-03 7.85874100e-02
       -2 -1    0    0    0  501 -0.0000000000e+00 +0.0000000000e+00 +2.5308712496e+03 2.5308712496e+03 2.5500000000e-03 0.0000e+00 -1.0000e+00
        2 -1    0    0  501    0 +0.0000000000e+00 -0.0000000000e+00 -2.2839979020e+03 2.2839979020e+03 2.5500000000e-03 0.0000e+00 1.0000e+00
  1000011  2    1    2    0    0 +4.5315073373e+02 -3.2175142885e+02 -5.1667616234e+02 2.3746131095e+03 2.2501030185e+03 1.6958e+01 0.0000e+00
 -1000011  2    1    2    0    0 -4.5315073373e+02 +3.2175142885e+02 +7.6354950997e+02 2.4402560420e+03 2.2501049146e+03 2.4405e+02 0.0000e+00
       11  1    3    3    0    0 -1.9186029720e-02 -1.0850515098e-01 -8.5861659048e-03 1.1052354672e-01 5.1100000000e-04 0.0000e+00 1.0000e+00
  1000022  1    3    3    0    0 +4.5316991976e+02 -3.2164292370e+02 -5.1666757618e+02 2.3745025860e+03 2.2500000000e+03 0.0000e+00 0.0000e+00
      -11  1    4    4    0    0 -9.4450455802e-02 -5.9312669903e-02 +4.8634556797e-02 1.2167358944e-01 5.1100000000e-04 0.0000e+00 -1.0000e+00
  1000022  1    4    4    0    0 -4.5305628327e+02 +3.2181074152e+02 +7.6350087541e+02 2.4401343684e+03 2.2500000000e+03 0.0000e+00 0.0000e+00
<mgrwt>
<rscale>  0 0.48085360E+04</rscale>
<asrwt>0</asrwt>
<pdfrwt beam="1">  1        2 0.35138429E+00 0.48085360E+04</pdfrwt>
<pdfrwt beam="2">  1       -2 0.38936481E+00 0.48085360E+04</pdfrwt>
<totfact> 0.29805765E-02</totfact>
</mgrwt>
</event>
<event>
 8      1 +1.2359593e-08 4.59777400e+03 7.81860800e-03 7.89374000e-02
       -2 -1    0    0    0  501 -0.0000000000e+00 +0.0000000000e+00 +1.9198029951e+03 1.9198029951e+03 2.5500000000e-03 0.0000e+00 -1.0000e+00
        2 -1    0    0  501    0 +0.0000000000e+00 -0.0000000000e+00 -2.7528251493e+03 2.7528251493e+03 2.5500000000e-03 0.0000e+00 1.0000e+00
  1000011  2    1    2    0    0 +1.6284787840e+02 +2.3116058943e+02 -3.3594923606e+01 2.2680483871e+03 2.2501022683e+03 5.2535e+02 0.0000e+00
 -1000011  2    1    2    0    0 -1.6284787840e+02 -2.3116058943e+02 -7.9942723066e+02 2.4045797573e+03 2.2501033893e+03 4.3474e+02 0.0000e+00
       11  1    3    3    0    0 +1.0100826498e-01 -2.6522984342e-02 -1.9830298762e-02 1.0629976493e-01 5.1100000000e-04 0.0000e+00 1.0000e+00
  1000022  1    3    3    0    0 +1.6274687013e+02 +2.3118711241e+02 -3.3575093308e+01 2.2679420874e+03 2.2500000000e+03 0.0000e+00 0.0000e+00
      -11  1    4    4    0    0 -3.7643507090e-02 +8.8092431684e-02 -4.4383757005e-02 1.0558166920e-01 5.1100000000e-04 0.0000e+00 -1.0000e+00
  1000022  1    4    4    0    0 -1.6281023489e+02 -2.3124868186e+02 -7.9938284690e+02 2.4044741757e+03 2.2500000000e+03 0.0000e+00 0.0000e+00
<mgrwt>
<rscale>  0 0.45977742E+04</rscale>
<asrwt>0</asrwt>
<pdfrwt beam="1">  1        2 0.42351156E+00 0.45977742E+04</pdfrwt>
<pdfrwt beam="2">  1       -2 0.29535431E+00 0.45977742E+04</pdfrwt>
<totfact> 0.62974403E-02</totfact>
</mgrwt>
</event>
<event>
 8      1 +1.2359593e-08 5.23381100e+03 7.81860800e-03 7.79341800e-02
       -1 -1    0    0    0  501 -0.0000000000e+00 +0.0000000000e+00 +2.6002002434e+03 2.6002002434e+03 5.0400000000e-03 0.0000e+00 -1.0000e+00
        1 -1    0    0  501    0 +0.0000000000e+00 -0.0000000000e+00 -2.6337180292e+03 2.6337180292e+03 5.0400000000e-03 0.0000e+00 1.0000e+00
  1000011  2    1    2    0    0 -3.8882231472e+02 -3.0376078715e+01 -1.2947340123e+03 2.6251432323e+03 2.2500967377e+03 1.9883e+03 0.0000e+00
 -1000011  2    1    2    0    0 +3.8882231472e+02 +3.0376078715e+01 +1.2612162264e+03 2.6087750403e+03 2.2500967407e+03 8.5044e+02 0.0000e+00
       11  1    3    3    0    0 +4.1530863792e-02 +3.9012210325e-02 -1.2640728240e-01 1.3865722929e-01 5.1100000000e-04 0.0000e+00 1.0000e+00
  1000022  1    3    3    0    0 -3.8886384558e+02 -3.0415090926e+01 -1.2946076050e+03 2.6250045751e+03 2.2500000000e+03 0.0000e+00 0.0000e+00
      -11  1    4    4    0    0 +9.7727634040e-02 -5.2297163228e-02 +5.0423294974e-02 1.2177213518e-01 5.1100000000e-04 0.0000e+00 -1.0000e+00
  1000022  1    4    4    0    0 +3.8872458708e+02 +3.0428375879e+01 +1.2611658031e+03 2.6086532682e+03 2.2500000000e+03 0.0000e+00 0.0000e+00
<mgrwt>
<rscale>  0 0.52338109E+04</rscale>
<asrwt>0</asrwt>
<pdfrwt beam="1">  1        1 0.40518739E+00 0.52338109E+04</pdfrwt>
<pdfrwt beam="2">  1       -1 0.40003081E+00 0.52338109E+04</pdfrwt>
<totfact> 0.55415433E-03</totfact>
</mgrwt>
</event>
<event>
 8      1 +1.2359593e-08 4.88801800e+03 7.81860800e-03 7.84601700e-02
       -2 -1    0    0    0  501 -0.0000000000e+00 +0.0000000000e+00 +1.5793448454e+03 1.5793448454e+03 2.5500000000e-03 0.0000e+00 -1.0000e+00
        2 -1    0    0  501    0 +0.0000000000e+00 -0.0000000000e+00 -3.7820626181e+03 3.7820626181e+03 2.5500000000e-03 0.0000e+00 1.0000e+00
  1000011  2    1    2    0    0 +1.1469856135e+02 -5.8980709117e+02 -2.8850353035e+02 2.3467426076e+03 2.2500974234e+03 5.9125e+02 0.0000e+00
 -1000011  2    1    2    0    0 -1.1469856135e+02 +5.8980709117e+02 -1.9142142424e+03 3.0146648559e+03 2.2501021894e+03 9.1174e+02 0.0000e+00
       11  1    3    3    0    0 -2.9995961995e-02 +6.1406905139e-02 -4.5498417859e-02 8.2103182890e-02 5.1100000000e-04 0.0000e+00 1.0000e+00
  1000022  1    3    3    0    0 +1.1472855731e+02 -5.8986849807e+02 -2.8845803193e+02 2.3466605044e+03 2.2500000000e+03 0.0000e+00 0.0000e+00
      -11  1    4    4    0    0 +5.6963508801e-02 +7.6330476189e-02 -1.0722307385e-02 9.5845768719e-02 5.1100000000e-04 0.0000e+00 -1.0000e+00
  1000022  1    4    4    0    0 -1.1475552486e+02 +5.8973076069e+02 -1.9142035201e+03 3.0145690101e+03 2.2500000000e+03 0.0000e+00 0.0000e+00
<mgrwt>
<rscale>  0 0.48880185E+04</rscale>
<asrwt>0</asrwt>
<pdfrwt beam="1">  1        2 0.58185579E+00 0.48880185E+04</pdfrwt>
<pdfrwt beam="2">  1       -2 0.24297613E+00 0.48880185E+04</pdfrwt>
<totfact> 0.26341958E-02</totfact>
</mgrwt>
</event>
<event>
 8      1 +1.2359593e-08 4.63283300e+03 7.81860800e-03 7.88778600e-02
        2 -1    0    0  501    0 +0.0000000000e+00 +0.0000000000e+00 +2.0178574482e+03 2.0178574483e+03 2.5500000000e-03 0.0000e+00 1.0000e+00
       -2 -1    0    0    0  501 -0.0000000000e+00 -0.0000000000e+00 -2.6591501728e+03 2.6591501728e+03 2.5500000000e-03 0.0000e+00 -1.0000e+00
  1000011  2    1    2    0    0 +5.0223431128e+01 +3.8237918171e+02 +7.5657635103e+01 2.2841639874e+03 2.2500988449e+03 1.5974e+03 0.0000e+00
 -1000011  2    1    2    0    0 -5.0223431128e+01 -3.8237918171e+02 -7.1695035965e+02 2.3928436337e+03 2.2500992435e+03 5.8758e+03 0.0000e+00
       11  1    3    3    0    0 -8.2762046497e-02 +6.4866800830e-02 +2.0197379394e-02 1.0707685644e-01 5.1100000000e-04 0.0000e+00 1.0000e+00
  1000022  1    3    3    0    0 +5.0306193175e+01 +3.8231431491e+02 +7.5637437724e+01 2.2840569105e+03 2.2500000000e+03 0.0000e+00 0.0000e+00
      -11  1    4    4    0    0 +6.8238641998e-03 +4.9527888585e-02 -1.0570763960e-01 1.1693563396e-01 5.1100000000e-04 0.0000e+00 -1.0000e+00
  1000022  1    4    4    0    0 -5.0230254992e+01 -3.8242870960e+02 -7.1684465201e+02 2.3927266981e+03 2.2500000000e+03 0.0000e+00 0.0000e+00
<mgrwt>
<rscale>  0 0.46328333E+04</rscale>
<asrwt>0</asrwt>
<pdfrwt beam="1">  1        2 0.31043960E+00 0.46328333E+04</pdfrwt>
<pdfrwt beam="2">  1       -2 0.40910003E+00 0.46328333E+04</pdfrwt>
<totfact> 0.31681700E-02</totfact>
</mgrwt>
</event>
<event>
 8      1 +1.2359593e-08 4.51592600e+03 7.81860800e-03 7.90785500e-02
        2 -1    0    0  501    0 +0.0000000000e+00 +0.0000000000e+00 +3.1063737138e+03 3.1063737138e+03 2.5500000000e-03 0.0000e+00 -1.0000e+00
       -2 -1    0    0    0  501 -0.0000000000e+00 -0.0000000000e+00 -1.6412696247e+03 1.6412696247e+03 2.5500000000e-03 0.0000e+00 1.0000e+00
  1000011  2    1    2    0    0 +1.7900479209e+02 +5.1715312706e+01 +7.6063331888e+02 2.3824838830e+03 2.2500998240e+03 1.7012e+03 0.0000e+00
 -1000011  2    1    2    0    0 -1.7900479209e+02 -5.1715312706e+01 +7.0447077027e+02 2.3651594555e+03 2.2501073296e+03 9.1474e+02 0.0000e+00
       11  1    3    3    0    0 +8.8092348371e-02 -4.1041154232e-02 +7.8939559051e-02 1.2520524474e-01 5.1100000000e-04 0.0000e+00 1.0000e+00
  1000022  1    3    3    0    0 +1.7891669974e+02 +5.1756353860e+01 +7.6055437932e+02 2.3823586778e+03 2.2500000000e+03 0.0000e+00 0.0000e+00
      -11  1    4    4    0    0 -1.0929248335e-01 -5.5311857727e-03 +7.5632375003e-02 1.3302615511e-01 5.1100000000e-04 0.0000e+00 -1.0000e+00
  1000022  1    4    4    0    0 -1.7889549960e+02 -5.1709781520e+01 +7.0439513790e+02 2.3650264294e+03 2.2500000000e+03 0.0000e+00 0.0000e+00
<mgrwt>
<rscale>  0 0.45159260E+04</rscale>
<asrwt>0</asrwt>
<pdfrwt beam="1">  1        2 0.47790364E+00 0.45159260E+04</pdfrwt>
<pdfrwt beam="2">  1       -2 0.25250302E+00 0.45159260E+04</pdfrwt>
<totfact> 0.69917636E-02</totfact>
</mgrwt>
</event>
<event>
 8      1 +1.2359593e-08 6.22389200e+03 7.81860800e-03 7.66324500e-02
        2 -1    0    0  501    0 +0.0000000000e+00 +0.0000000000e+00 +2.9393457185e+03 2.9393457185e+03 2.5500000000e-03 0.0000e+00 -1.0000e+00
       -2 -1    0    0    0  501 -0.0000000000e+00 -0.0000000000e+00 -3.2946812467e+03 3.2946812467e+03 2.5500000000e-03 0.0000e+00 1.0000e+00
  1000011  2    1    2    0    0 -1.5417095847e+03 +1.4969513602e+03 -1.1823980228e+02 3.1136272189e+03 2.2501026619e+03 2.3786e+03 0.0000e+00
 -1000011  2    1    2    0    0 +1.5417095847e+03 -1.4969513602e+03 -2.3709572593e+02 3.1203997463e+03 2.2500996367e+03 1.0033e+03 0.0000e+00
       11  1    3    3    0    0 -2.3708294612e-02 +1.2435460072e-01 -7.7959295215e-02 1.4867434952e-01 5.1100000000e-04 0.0000e+00 1.0000e+00
  1000022  1    3    3    0    0 -1.5416858764e+03 +1.4968270056e+03 -1.1816184299e+02 3.1134785445e+03 2.2500000000e+03 0.0000e+00 0.0000e+00
      -11  1    4    4    0    0 +1.6002421192e-01 -2.4753945824e-02 +8.4046240800e-03 1.6214624473e-01 5.1100000000e-04 0.0000e+00 -1.0000e+00
  1000022  1    4    4    0    0 +1.5415495605e+03 -1.4969266062e+03 -2.3710413055e+02 3.1202376000e+03 2.2500000000e+03 0.0000e+00 0.0000e+00
<mgrwt>
<rscale>  0 0.62238918E+04</rscale>
<asrwt>0</asrwt>
<pdfrwt beam="1">  1        2 0.45220703E+00 0.62238918E+04</pdfrwt>
<pdfrwt beam="2">  1       -2 0.50687404E+00 0.62238918E+04</pdfrwt>
<totfact> 0.19057456E-03</totfact>
</mgrwt>
</event>
<event>
 8      1 +1.2359593e-08 5.07620700e+03 7.81860800e-03 7.81685800e-02
        2 -1    0    0  501    0 +0.0000000000e+00 +0.0000000000e+00 +3.0923509030e+03 3.0923509030e+03 2.5500000000e-03 0.0000e+00 1.0000e+00
       -2 -1    0    0    0  501 -0.0000000000e+00 -0.0000000000e+00 -2.0831947663e+03 2.0831947663e+03 2.5500000000e-03 0.0000e+00 -1.0000e+00
  1000011  2    1    2    0    0 -1.1030832540e+03 +3.3788200721e+02 +7.2811332812e+02 2.6313588588e+03 2.2500985554e+03 1.0389e+03 0.0000e+00
 -1000011  2    1    2    0    0 +1.1030832540e+03 -3.3788200721e+02 +2.8104280862e+02 2.5441868105e+03 2.2500987868e+03 3.5962e+02 0.0000e+00
       11  1    3    3    0    0 -1.3491465544e-01 -7.4034758642e-03 -1.4431159928e-02 1.3588706682e-01 5.1100000000e-04 0.0000e+00 1.0000e+00
  1000022  1    3    3    0    0 -1.1029483393e+03 +3.3788941069e+02 +7.2812775928e+02 2.6312229717e+03 2.2500000000e+03 0.0000e+00 0.0000e+00
      -11  1    4    4    0    0 +9.6276984084e-02 -1.0644876383e-01 +2.8248847045e-03 1.4355778444e-01 5.1100000000e-04 0.0000e+00 -1.0000e+00
  1000022  1    4    4    0    0 +1.1029869770e+03 -3.3777555845e+02 +2.8103998373e+02 2.5440432527e+03 2.2500000000e+03 0.0000e+00 0.0000e+00
<mgrwt>
<rscale>  0 0.50762069E+04</rscale>
<asrwt>0</asrwt>
<pdfrwt beam="1">  1        2 0.47574629E+00 0.50762069E+04</pdfrwt>
<pdfrwt beam="2">  1       -2 0.32049150E+00 0.50762069E+04</pdfrwt>
<totfact> 0.26168428E-02</totfact>
</mgrwt>
</event>
<event>
 8      1 +1.2359593e-08 4.83690000e+03 7.81860800e-03 7.85417100e-02
        2 -1    0    0  501    0 +0.0000000000e+00 +0.0000000000e+00 +3.5407971647e+03 3.5407971647e+03 2.5500000000e-03 0.0000e+00 1.0000e+00
       -2 -1    0    0    0  501 -0.0000000000e+00 -0.0000000000e+00 -1.6518598071e+03 1.6518598071e+03 2.5500000000e-03 0.0000e+00 -1.0000e+00
  1000011  2    1    2    0    0 -1.1037376323e+02 -7.0205541975e+02 +3.7549919220e+02 2.3893536119e+03 2.2500992998e+03 3.3175e+03 0.0000e+00
 -1000011  2    1    2    0    0 +1.1037376323e+02 +7.0205541975e+02 +1.5134381654e+03 2.8033033600e+03 2.2501001017e+03 1.5065e+03 0.0000e+00
       11  1    3    3    0    0 -6.0288333163e-02 +4.2385524091e-02 -2.9162094213e-02 7.9258464871e-02 5.1100000000e-04 0.0000e+00 1.0000e+00
  1000022  1    3    3    0    0 -1.1031347490e+02 -7.0209780528e+02 +3.7552835429e+02 2.3892743534e+03 2.2500000000e+03 0.0000e+00 0.0000e+00
      -11  1    4    4    0    0 +1.8113883483e-02 -3.3508776535e-02 +1.4740425979e-01 1.5224725727e-01 5.1100000000e-04 0.0000e+00 -1.0000e+00
  1000022  1    4    4    0    0 +1.1035564935e+02 +7.0208892853e+02 +1.5132907612e+03 2.8031511127e+03 2.2500000000e+03 0.0000e+00 0.0000e+00
<mgrwt>
<rscale>  0 0.48369000E+04</rscale>
<asrwt>0</asrwt>
<pdfrwt beam="1">  1        2 0.54473802E+00 0.48369000E+04</pdfrwt>
<pdfrwt beam="2">  1       -2 0.25413228E+00 0.48369000E+04</pdfrwt>
<totfact> 0.33941544E-02</totfact>
</mgrwt>
</event>
<event>
 8      1 +1.2359593e-08 4.68777000e+03 7.81860800e-03 7.87856400e-02
        2 -1    0    0  501    0 +0.0000000000e+00 +0.0000000000e+00 +3.8875842452e+03 3.8875842452e+03 2.5500000000e-03 0.0000e+00 1.0000e+00
       -2 -1    0    0    0  501 -0.0000000000e+00 -0.0000000000e+00 -1.4131647851e+03 1.4131647851e+03 2.5500000000e-03 0.0000e+00 -1.0000e+00
  1000011  2    1    2    0    0 +5.2436208909e+02 +1.0425332738e+02 +8.0659042369e+02 2.4493564121e+03 2.2500965235e+03 5.8671e+02 0.0000e+00
 -1000011  2    1    2    0    0 -5.2436208909e+02 -1.0425332738e+02 +1.6678290364e+03 2.8513926182e+03 2.2501026225e+03 2.2032e+02 0.0000e+00
       11  1    3    3    0    0 +2.4282458419e-02 -9.0447197702e-02 +1.4355681683e-02 9.4745339672e-02 5.1100000000e-04 0.0000e+00 1.0000e+00
  1000022  1    3    3    0    0 +5.2433780663e+02 +1.0434377457e+02 +8.0657606800e+02 2.4492616668e+03 2.2500000000e+03 0.0000e+00 0.0000e+00
      -11  1    4    4    0    0 -7.2208185736e-02 +7.8815221475e-02 +3.7375903063e-02 1.1323904054e-01 5.1100000000e-04 0.0000e+00 -1.0000e+00
  1000022  1    4    4    0    0 -5.2428988091e+02 -1.0433214260e+02 +1.6677916605e+03 2.8512793792e+03 2.2500000000e+03 0.0000e+00 0.0000e+00
<mgrwt>
<rscale>  0 0.46877701E+04</rscale>
<asrwt>0</asrwt>
<pdfrwt beam="1">  1        2 0.59808987E+00 0.46877701E+04</pdfrwt>
<pdfrwt beam="2">  1       -2 0.21740997E+00 0.46877701E+04</pdfrwt>
<totfact> 0.32085129E-02</totfact>
</mgrwt>
</event>
<event>
 8      1 +1.2359593e-08 5.17034000e+03 7.81860800e-03 7.80275500e-02
        1 -1    0    0  501    0 +0.0000000000e+00 +0.0000000000e+00 +3.1082967162e+03 3.1082967162e+03 5.0400000000e-03 0.0000e+00 -1.0000e+00
       -1 -1    0    0    0  501 -0.0000000000e+00 -0.0000000000e+00 -2.1500853444e+03 2.1500853444e+03 5.0400000000e-03 0.0000e+00 1.0000e+00
  1000011  2    1    2    0    0 +6.7419983804e+02 -9.8335453306e+02 +2.5875902586e+01 2.5466052026e+03 2.2501104276e+03 8.3290e+02 0.0000e+00
 -1000011  2    1    2    0    0 -6.7419983804e+02 +9.8335453306e+02 +9.3233546922e+02 2.7117768580e+03 2.2501006069e+03 1.2946e+03 0.0000e+00
       11  1    3    3    0    0 +8.1857551186e-02 -1.6049901778e-01 -1.7692335458e-02 1.8103555611e-01 5.1100000000e-04 0.0000e+00 1.0000e+00
  1000022  1    3    3    0    0 +6.7411798049e+02 -9.8319403404e+02 +2.5893594921e+01 2.5464241670e+03 2.2500000000e+03 0.0000e+00 0.0000e+00
      -11  1    4    4    0    0 +6.0178165244e-02 +1.4636756370e-02 +8.0346611813e-02 1.0144695646e-01 5.1100000000e-04 0.0000e+00 -1.0000e+00
  1000022  1    4    4    0    0 -6.7426001621e+02 +9.8333989630e+02 +9.3225512261e+02 2.7116754110e+03 2.2500000000e+03 0.0000e+00 0.0000e+00
<mgrwt>
<rscale>  0 0.51703397E+04</rscale>
<asrwt>0</asrwt>
<pdfrwt beam="1">  1        1 0.47819949E+00 0.51703397E+04</pdfrwt>
<pdfrwt beam="2">  1       -1 0.33078236E+00 0.51703397E+04</pdfrwt>
<totfact> 0.73722367E-03</totfact>
</mgrwt>
</event>
<event>
 8      1 +1.2359593e-08 5.35423800e+03 7.81860800e-03 7.77607100e-02
       -2 -1    0    0    0  501 -0.0000000000e+00 +0.0000000000e+00 +1.8642356651e+03 1.8642356652e+03 2.5500000000e-03 0.0000e+00 -1.0000e+00
        2 -1    0    0  501    0 +0.0000000000e+00 -0.0000000000e+00 -3.8444527150e+03 3.8444527150e+03 2.5500000000e-03 0.0000e+00 1.0000e+00
  1000011  2    1    2    0    0 +6.8758725792e+02 -8.9496974746e+02 -1.9616215807e+03 3.1913392043e+03 2.2500976879e+03 1.8995e+03 0.0000e+00
 -1000011  2    1    2    0    0 -6.8758725792e+02 +8.9496974746e+02 -1.8595469200e+01 2.5173491759e+03 2.2501008856e+03 9.9350e+01 0.0000e+00
       11  1    3    3    0    0 +9.0636191812e-02 -5.5741413791e-03 -1.7637103750e-01 1.9837589104e-01 5.1100000000e-04 0.0000e+00 1.0000e+00
  1000022  1    3    3    0    0 +6.8749662173e+02 -8.9496417332e+02 -1.9614452096e+03 3.1911408284e+03 2.2500000000e+03 0.0000e+00 0.0000e+00
      -11  1    4    4    0    0 +2.7225538384e-02 +7.0585259457e-02 +7.6046231895e-02 1.0726974881e-01 5.1100000000e-04 0.0000e+00 -1.0000e+00
  1000022  1    4    4    0    0 -6.8761448346e+02 +8.9489916221e+02 -1.8671515432e+01 2.5172419061e+03 2.2500000000e+03 0.0000e+00 0.0000e+00
<mgrwt>
<rscale>  0 0.53542379E+04</rscale>
<asrwt>0</asrwt>
<pdfrwt beam="1">  1        2 0.59145426E+00 0.53542379E+04</pdfrwt>
<pdfrwt beam="2">  1       -2 0.28680549E+00 0.53542379E+04</pdfrwt>
<totfact> 0.12254509E-02</totfact>
</mgrwt>
</event>
<event>
 8      1 +1.2359593e-08 4.73217800e+03 7.81860800e-03 7.87120400e-02
       -2 -1    0    0    0  501 -0.0000000000e+00 +0.0000000000e+00 +1.5882097675e+03 1.5882097675e+03 2.5500000000e-03 0.0000e+00 -1.0000e+00
        2 -1    0    0  501    0 +0.0000000000e+00 -0.0000000000e+00 -3.5249609917e+03 3.5249609917e+03 2.5500000000e-03 0.0000e+00 1.0000e+00
  1000011  2    1    2    0    0 +7.0317161776e+02 -1.8567250974e+02 -8.8124571898e+02 2.5235828047e+03 2.2501003423e+03 8.0931e+02 0.0000e+00
 -1000011  2    1    2    0    0 -7.0317161776e+02 +1.8567250974e+02 -1.0555055052e+03 2.5895879544e+03 2.2500998417e+03 5.9428e+03 0.0000e+00
       11  1    3    3    0    0 +1.0203756551e-01 -7.5182013528e-02 -8.7363294243e-02 1.5393701868e-01 5.1100000000e-04 0.0000e+00 1.0000e+00
  1000022  1    3    3    0    0 +7.0306958019e+02 -1.8559732773e+02 -8.8115835568e+02 2.5234288677e+03 2.2500000000e+03 0.0000e+00 0.0000e+00
      -11  1    4    4    0    0 +5.6577313997e-02 +5.4493638888e-02 -9.3601285977e-03 7.9110188031e-02 5.1100000000e-04 0.0000e+00 -1.0000e+00
  1000022  1    4    4    0    0 -7.0322819507e+02 +1.8561801611e+02 -1.0554961451e+03 2.5895088443e+03 2.2500000000e+03 0.0000e+00 0.0000e+00
<mgrwt>
<rscale>  0 0.47321781E+04</rscale>
<asrwt>0</asrwt>
<pdfrwt beam="1">  1        2 0.54230169E+00 0.47321781E+04</pdfrwt>
<pdfrwt beam="2">  1       -2 0.24433997E+00 0.47321781E+04</pdfrwt>
<totfact> 0.40351089E-02</totfact>
</mgrwt>
</event>
<event>
 8      1 +1.2359593e-08 4.93944700e+03 7.81860800e-03 7.83791600e-02
        1 -1    0    0  501    0 +0.0000000000e+00 +0.0000000000e+00 +2.2444017177e+03 2.2444017177e+03 5.0400000000e-03 0.0000e+00 -1.0000e+00
       -1 -1    0    0    0  501 -0.0000000000e+00 -0.0000000000e+00 -2.7176664318e+03 2.7176664318e+03 5.0400000000e-03 0.0000e+00 1.0000e+00
  1000011  2    1    2    0    0 +4.1884536824e+01 +4.1963473348e+02 -1.1675574673e+03 2.5698203034e+03 2.2500974042e+03 4.4762e+02 0.0000e+00
 -1000011  2    1    2    0    0 -4.1884536824e+01 -4.1963473348e+02 +6.9429275325e+02 2.3922478461e+03 2.2501021546e+03 5.6923e+02 0.0000e+00
       11  1    3    3    0    0 -2.1271267691e-02 -7.1591830192e-02 -8.0535872433e-02 1.0983689919e-01 5.1100000000e-04 0.0000e+00 1.0000e+00
  1000022  1    3    3    0    0 +4.1905808091e+01 +4.1970632531e+02 -1.1674769314e+03 2.5697104665e+03 2.2500000000e+03 0.0000e+00 0.0000e+00
      -11  1    4    4    0    0 +2.1126046945e-02 +4.6287736636e-02 +1.0726850122e-01 1.1872512941e-01 5.1100000000e-04 0.0000e+00 -1.0000e+00
  1000022  1    4    4    0    0 -4.1905662871e+01 -4.1968102122e+02 +6.9418548475e+02 2.3921291210e+03 2.2500000000e+03 0.0000e+00 0.0000e+00
<mgrwt>
<rscale>  0 0.49394474E+04</rscale>
<asrwt>0</asrwt>
<pdfrwt beam="1">  1        1 0.34529257E+00 0.49394474E+04</pdfrwt>
<pdfrwt beam="2">  1       -1 0.41810253E+00 0.49394474E+04</pdfrwt>
<totfact> 0.79250449E-03</totfact>
</mgrwt>
</event>
<event>
 8      1 +1.2359593e-08 4.76372300e+03 7.81860800e-03 7.86602600e-02
        2 -1    0    0  501    0 +0.0000000000e+00 +0.0000000000e+00 +2.6238804103e+03 2.6238804103e+03 2.5500000000e-03 0.0000e+00 1.0000e+00
       -2 -1    0    0    0  501 -0.0000000000e+00 -0.0000000000e+00 -2.1621660224e+03 2.1621660224e+03 2.5500000000e-03 0.0000e+00 -1.0000e+00
  1000011  2    1    2    0    0 -5.3057842902e+02 +2.9209214791e+02 -2.6489815679e+02 2.3451970319e+03 2.2500992851e+03 1.7165e+03 0.0000e+00
 -1000011  2    1    2    0    0 +5.3057842902e+02 -2.9209214791e+02 +7.2661254467e+02 2.4408494008e+03 2.2500997122e+03 6.5588e+02 0.0000e+00
       11  1    3    3    0    0 -6.7458109066e-02 +6.8785964880e-03 +7.7088045905e-02 1.0266810395e-01 5.1100000000e-04 0.0000e+00 1.0000e+00
  1000022  1    3    3    0    0 -5.3051097091e+02 +2.9208526931e+02 -2.6497524484e+02 2.3450943638e+03 2.2500000000e+03 0.0000e+00 0.0000e+00
      -11  1    4    4    0    0 -6.6586320493e-02 +2.4234374667e-02 -1.0007656457e-02 7.1564356701e-02 5.1100000000e-04 0.0000e+00 -1.0000e+00
  1000022  1    4    4    0    0 +5.3064501534e+02 -2.9211638228e+02 +7.2662255232e+02 2.4407778364e+03 2.2500000000e+03 0.0000e+00 0.0000e+00
<mgrwt>
<rscale>  0 0.47637234E+04</rscale>
<asrwt>0</asrwt>
<pdfrwt beam="1">  1        2 0.40367391E+00 0.47637234E+04</pdfrwt>
<pdfrwt beam="2">  1       -2 0.33264093E+00 0.47637234E+04</pdfrwt>
<totfact> 0.43682947E-02</totfact>
</mgrwt>
</event>
<event>
 8      1 +1.2359593e-08 5.36998300e+03 7.81860800e-03 7.77383700e-02
        2 -1    0    0  501    0 +0.0000000000e+00 +0.0000000000e+00 +3.9434410914e+03 3.9434410914e+03 2.5500000000e-03 0.0000e+00 1.0000e+00
       -2 -1    0    0    0  501 -0.0000000000e+00 -0.0000000000e+00 -1.8281442043e+03 1.8281442043e+03 2.5500000000e-03 0.0000e+00 -1.0000e+00
  1000011  2    1    2    0    0 -6.4378614387e+02 -5.3834040169e+02 -2.3297935798e+02 2.4127710241e+03 2.2500919195e+03 3.2724e+02 0.0000e+00
 -1000011  2    1    2    0    0 +6.4378614387e+02 +5.3834040169e+02 +2.3482762450e+03 3.3588142717e+03 2.2501024424e+03 6.0796e+02 0.0000e+00
       11  1    3    3    0    0 -7.3988385485e-02 -6.6539689187e-02 +5.7212642467e-02 1.1478396484e-01 5.1100000000e-04 0.0000e+00 1.0000e+00
  1000022  1    3    3    0    0 -6.4371215548e+02 -5.3827386200e+02 -2.3303657063e+02 2.4126562401e+03 2.2500000000e+03 0.0000e+00 0.0000e+00
      -11  1    4    4    0    0 +1.0433640192e-01 +1.0272197738e-01 +1.2577634691e-01 1.9302289876e-01 5.1100000000e-04 0.0000e+00 -1.0000e+00
  1000022  1    4    4    0    0 +6.4368180746e+02 +5.3823767971e+02 +2.3481504687e+03 3.3586212488e+03 2.2500000000e+03 0.0000e+00 0.0000e+00
<mgrwt>
<rscale>  0 0.53699829E+04</rscale>
<asrwt>0</asrwt>
<pdfrwt beam="1">  1        2 0.60668325E+00 0.53699829E+04</pdfrwt>
<pdfrwt beam="2">  1       -2 0.28125295E+00 0.53699829E+04</pdfrwt>
<totfact> 0.11061538E-02</totfact>
</mgrwt>
</event>
<event>
 8      1 +1.2359593e-08 4.94239800e+03 7.81860800e-03 7.83745500e-02
       -2 -1    0    0    0  501 -0.0000000000e+00 +0.0000000000e+00 +1.8623923902e+03 1.8623923902e+03 2.5500000000e-03 0.0000e+00 -1.0000e+00
        2 -1    0    0  501    0 +0.0000000000e+00 -0.0000000000e+00 -3.2790214644e+03 3.2790214644e+03 2.5500000000e-03 0.0000e+00 1.0000e+00
  1000011  2    1    2    0    0 +1.9683866884e+02 +5.1307338730e+02 -1.6043272092e+03 2.8175888552e+03 2.2501003090e+03 3.1597e+02 0.0000e+00
 -1000011  2    1    2    0    0 -1.9683866884e+02 -5.1307338730e+02 +1.8769813496e+02 2.3238249994e+03 2.2500982813e+03 5.2509e+02 0.0000e+00
       11  1    3    3    0    0 +9.5492603285e-02 -2.3006624649e-02 -9.5221037887e-02 1.3680441746e-01 5.1100000000e-04 0.0000e+00 1.0000e+00
  1000022  1    3    3    0    0 +1.9674317623e+02 +5.1309639393e+02 -1.6042319882e+03 2.8174520508e+03 2.2500000000e+03 0.0000e+00 0.0000e+00
      -11  1    4    4    0    0 +8.1667879580e-02 -4.3867955864e-03 +4.3730290326e-02 9.2744194409e-02 5.1100000000e-04 0.0000e+00 -1.0000e+00
  1000022  1    4    4    0    0 -1.9692033672e+02 -5.1306900050e+02 +1.8765440466e+02 2.3237322552e+03 2.2500000000e+03 0.0000e+00 0.0000e+00
<mgrwt>
<rscale>  0 0.49423981E+04</rscale>
<asrwt>0</asrwt>
<pdfrwt beam="1">  1        2 0.50446484E+00 0.49423981E+04</pdfrwt>
<pdfrwt beam="2">  1       -2 0.28652191E+00 0.49423981E+04</pdfrwt>
<totfact> 0.32286482E-02</totfact>
</mgrwt>
</event>
<event>
 8      1 +1.2359593e-08 4.78322400e+03 7.81860800e-03 7.86284600e-02
       -2 -1    0    0    0  501 -0.0000000000e+00 +0.0000000000e+00 +3.0995329863e+03 3.0995329863e+03 2.5500000000e-03 0.0000e+00 -1.0000e+00
        2 -1    0    0  501    0 +0.0000000000e+00 -0.0000000000e+00 -1.8453776761e+03 1.8453776761e+03 2.5500000000e-03 0.0000e+00 1.0000e+00
  1000011  2    1    2    0    0 +7.6089798046e+02 +1.7277556525e+02 +8.5369693775e+02 2.5299323933e+03 2.2500982913e+03 1.2226e+03 0.0000e+00
 -1000011  2    1    2    0    0 -7.6089798046e+02 -1.7277556525e+02 +4.0045837251e+02 2.4149782691e+03 2.2500968867e+03 4.5975e+02 0.0000e+00
       11  1    3    3    0    0 +8.2450635627e-02 +6.0461387140e-02 +1.1806587330e-01 1.5618417937e-01 5.1100000000e-04 0.0000e+00 1.0000e+00
  1000022  1    3    3    0    0 +7.6081552982e+02 +1.7271510386e+02 +8.5357887188e+02 2.5297762091e+03 2.2500000000e+03 0.0000e+00 0.0000e+00
      -11  1    4    4    0    0 -6.3341262328e-03 -9.6059789461e-02 +4.6265449108e-02 1.0680990997e-01 5.1100000000e-04 0.0000e+00 -1.0000e+00
  1000022  1    4    4    0    0 -7.6089164633e+02 -1.7267950546e+02 +4.0041210706e+02 2.4148714592e+03 2.2500000000e+03 0.0000e+00 0.0000e+00
<mgrwt>
<rscale>  0 0.47832244E+04</rscale>
<asrwt>0</asrwt>
<pdfrwt beam="1">  1        2 0.28390426E+00 0.47832244E+04</pdfrwt>
<pdfrwt beam="2">  1       -2 0.47685122E+00 0.47832244E+04</pdfrwt>
<totfact> 0.14009141E-02</totfact>
</mgrwt>
</event>
<event>
 8      1 +1.2359593e-08 4.67764900e+03 7.81860800e-03 7.88025300e-02
       -2 -1    0    0    0  501 -0.0000000000e+00 +0.0000000000e+00 +3.2119011607e+03 3.2119011607e+03 2.5500000000e-03 0.0000e+00 -1.0000e+00
        2 -1    0    0  501    0 +0.0000000000e+00 -0.0000000000e+00 -1.7030722805e+03 1.7030722805e+03 2.5500000000e-03 0.0000e+00 1.0000e+00
  1000011  2    1    2    0    0 +1.1154026156e+02 +9.5321263320e+00 +9.4356792092e+01 2.2548584810e+03 2.2501003253e+03 4.1876e+02 0.0000e+00
 -1000011  2    1    2    0    0 -1.1154026156e+02 -9.5321263320e+00 +1.4144720881e+03 2.6601149603e+03 2.2500996028e+03 2.3871e+02 0.0000e+00
       11  1    3    3    0    0 -2.0448478392e-02 -9.5672832097e-02 -9.5191372084e-03 9.8297027929e-02 5.1100000000e-04 0.0000e+00 1.0000e+00
  1000022  1    3    3    0    0 +1.1156071004e+02 +9.6277991641e+00 +9.4366311230e+01 2.2547601840e+03 2.2500000000e+03 0.0000e+00 0.0000e+00
      -11  1    4    4    0    0 +5.1198966199e-02 +4.4971583060e-02 -2.0349035979e-02 7.1120471037e-02 5.1100000000e-04 0.0000e+00 -1.0000e+00
  1000022  1    4    4    0    0 -1.1159146053e+02 -9.5770979151e+00 +1.4144924371e+03 2.6600438398e+03 2.2500000000e+03 0.0000e+00 0.0000e+00
<mgrwt>
<rscale>  0 0.46776489E+04</rscale>
<asrwt>0</asrwt>
<pdfrwt beam="1">  1        2 0.26201112E+00 0.46776489E+04</pdfrwt>
<pdfrwt beam="2">  1       -2 0.49413864E+00 0.46776489E+04</pdfrwt>
<totfact> 0.13153546E-02</totfact>
</mgrwt>
</event>
<event>
 8      1 +1.2359593e-08 4.95015100e+03 7.81860800e-03 7.83624300e-02
        2 -1    0    0  501    0 +0.0000000000e+00 +0.0000000000e+00 +3.7751994328e+03 3.7751994328e+03 2.5500000000e-03 0.0000e+00 1.0000e+00
       -2 -1    0    0    0  501 -0.0000000000e+00 -0.0000000000e+00 -1.6226953203e+03 1.6226953203e+03 2.5500000000e-03 0.0000e+00 -1.0000e+00
  1000011  2    1    2    0    0 +8.4587828946e+02 +3.3911610809e+02 +1.6020918192e+03 2.9086344706e+03 2.2500992136e+03 3.4691e+01 0.0000e+00
 -1000011  2    1    2    0    0 -8.4587828946e+02 -3.3911610809e+02 +5.5041229339e+02 2.4892602825e+03 2.2501007191e+03 5.4403e+02 0.0000e+00
       11  1    3    3    0    0 +1.3484732968e-02 +3.8560374175e-02 +1.7937224594e-01 1.8396576770e-01 5.1100000000e-04 0.0000e+00 1.0000e+00
  1000022  1    3    3    0    0 +8.4586480473e+02 +3.3907754772e+02 +1.6019124469e+03 2.9084505048e+03 2.2500000000e+03 0.0000e+00 0.0000e+00
      -11  1    4    4    0    0 -8.1709073217e-02 -1.1023189891e-01 +2.9857076987e-02 1.4042489089e-01 5.1100000000e-04 0.0000e+00 -1.0000e+00
  1000022  1    4    4    0    0 -8.4579658039e+02 -3.3900587620e+02 +5.5038243632e+02 2.4891198576e+03 2.2500000000e+03 0.0000e+00 0.0000e+00
<mgrwt>
<rscale>  0 0.49501509E+04</rscale>
<asrwt>0</asrwt>
<pdfrwt beam="1">  1        2 0.58079991E+00 0.49501509E+04</pdfrwt>
<pdfrwt beam="2">  1       -2 0.24964544E+00 0.49501509E+04</pdfrwt>
<totfact> 0.24131132E-02</totfact>
</mgrwt>
</event>
<event>
 8      1 +1.2359593e-08 4.74940400e+03 7.81860800e-03 7.86837100e-02
        1 -1    0    0  501    0 +0.0000000000e+00 +0.0000000000e+00 +2.6408922420e+03 2.6408922420e+03 5.0400000000e-03 0.0000e+00 1.0000e+00
       -1 -1    0    0    0  501 -0.0000000000e+00 -0.0000000000e+00 -2.1353427052e+03 2.1353427052e+03 5.0400000000e-03 0.0000e+00 -1.0000e+00
  1000011  2    1    2    0    0 +2.8103228250e+02 +6.7909591288e+02 +4.4387494391e+02 2.4083445277e+03 2.2500995524e+03 1.3722e+03 0.0000e+00
 -1000011  2    1    2    0    0 -2.8103228250e+02 -6.7909591288e+02 +6.1674592879e+01 2.3678904195e+03 2.2501001935e+03 8.8485e+02 0.0000e+00
       11  1    3    3    0    0 +3.3447899719e-02 -1.8323874386e-02 +1.0418492515e-01 1.1094722123e-01 5.1100000000e-04 0.0000e+00 1.0000e+00
  1000022  1    3    3    0    0 +2.8099883460e+02 +6.7911423676e+02 +4.4377075898e+02 2.4082335805e+03 2.2500000000e+03 0.0000e+00 0.0000e+00
      -11  1    4    4    0    0 -2.9925559435e-02 -1.3209011872e-01 -1.4883758897e-02 1.3625390085e-01 5.1100000000e-04 0.0000e+00 -1.0000e+00
  1000022  1    4    4    0    0 -2.8100235694e+02 -6.7896382277e+02 +6.1689476638e+01 2.3677541656e+03 2.2500000000e+03 0.0000e+00 0.0000e+00
<mgrwt>
<rscale>  0 0.47494042E+04</rscale>
<asrwt>0</asrwt>
<pdfrwt beam="1">  1        1 0.40629111E+00 0.47494042E+04</pdfrwt>
<pdfrwt beam="2">  1       -1 0.32851426E+00 0.47494042E+04</pdfrwt>
<totfact> 0.17126200E-02</totfact>
</mgrwt>
</event>
<event>
 8      1 +1.2359593e-08 5.13996100e+03 7.81860800e-03 7.80727200e-02
        2 -1    0    0  501    0 +0.0000000000e+00 +0.0000000000e+00 +2.5146268684e+03 2.5146268684e+03 2.5500000000e-03 0.0000e+00 1.0000e+00
       -2 -1    0    0    0  501 -0.0000000000e+00 -0.0000000000e+00 -2.6265524237e+03 2.6265524237e+03 2.5500000000e-03 0.0000e+00 -1.0000e+00
  1000011  2    1    2    0    0 +1.1080403286e+03 -4.6549845443e+02 +2.5621661779e+02 2.5637935498e+03 2.2500996045e+03 1.1881e+03 0.0000e+00
 -1000011  2    1    2    0    0 -1.1080403286e+03 +4.6549845443e+02 -3.6814217312e+02 2.5773857422e+03 2.2500992031e+03 3.7163e+01 0.0000e+00
       11  1    3    3    0    0 +5.6448232044e-02 +4.1158579638e-02 +8.9128727507e-02 1.1324585091e-01 5.1100000000e-04 0.0000e+00 1.0000e+00
  1000022  1    3    3    0    0 +1.1079838803e+03 -4.6553961301e+02 +2.5612748906e+02 2.5636803040e+03 2.2500000000e+03 0.0000e+00 0.0000e+00
      -11  1    4    4    0    0 -7.7015983311e-02 -6.2685361895e-02 -6.2461141580e-02 1.1731398456e-01 5.1100000000e-04 0.0000e+00 -1.0000e+00
  1000022  1    4    4    0    0 -1.1079633126e+03 +4.6556113979e+02 -3.6807971197e+02 2.5772684283e+03 2.2500000000e+03 0.0000e+00 0.0000e+00
<mgrwt>
<rscale>  0 0.51399608E+04</rscale>
<asrwt>0</asrwt>
<pdfrwt beam="1">  1        2 0.38686567E+00 0.51399608E+04</pdfrwt>
<pdfrwt beam="2">  1       -2 0.40408499E+00 0.51399608E+04</pdfrwt>
<totfact> 0.17169189E-02</totfact>
</mgrwt>
</event>
<event>
 8      1 +1.2359593e-08 5.16472200e+03 7.81860800e-03 7.80358800e-02
       -2 -1    0    0    0  501 -0.0000000000e+00 +0.0000000000e+00 +2.5714380641e+03 2.5714380641e+03 2.5500000000e-03 0.0000e+00 -1.0000e+00
        2 -1    0    0  501    0 +0.0000000000e+00 -0.0000000000e+00 -2.5933301249e+03 2.5933301249e+03 2.5500000000e-03 0.0000e+00 1.0000e+00
  1000011  2    1    2    0    0 -1.3683000324e+02 +7.2768263936e+02 -1.0392560123e+03 2.5867404692e+03 2.2500952696e+03 4.9778e+02 0.0000e+00
 -1000011  2    1    2    0    0 +1.3683000324e+02 -7.2768263936e+02 +1.0173639515e+03 2.5780277199e+03 2.2501006736e+03 5.4118e+02 0.0000e+00
       11  1    3    3    0    0 -6.6995856386e-02 +3.0292433591e-03 -1.1573607725e-01 1.3376367760e-01 5.1100000000e-04 0.0000e+00 1.0000e+00
  1000022  1    3    3    0    0 -1.3676300739e+02 +7.2767961012e+02 -1.0391402762e+03 2.5866067055e+03 2.2500000000e+03 0.0000e+00 0.0000e+00
      -11  1    4    4    0    0 +9.0410303126e-02 +9.9914459304e-03 +8.1035781854e-02 1.2182327536e-01 5.1100000000e-04 0.0000e+00 -1.0000e+00
  1000022  1    4    4    0    0 +1.3673959294e+02 -7.2769263081e+02 +1.0172829157e+03 2.5779058966e+03 2.2500000000e+03 0.0000e+00 0.0000e+00
<mgrwt>
<rscale>  0 0.51647218E+04</rscale>
<asrwt>0</asrwt>
<pdfrwt beam="1">  1        2 0.39897387E+00 0.51647218E+04</pdfrwt>
<pdfrwt beam="2">  1       -2 0.39560585E+00 0.51647218E+04</pdfrwt>
<totfact> 0.17510402E-02</totfact>
</mgrwt>
</event>
<event>
 8      1 +1.2359593e-08 6.46496300e+03 7.81860800e-03 7.63528100e-02
       -2 -1    0    0    0  501 -0.0000000000e+00 +0.0000000000e+00 +2.3872425338e+03 2.3872425338e+03 2.5500000000e-03 0.0000e+00 -1.0000e+00
        2 -1    0    0  501    0 +0.0000000000e+00 -0.0000000000e+00 -4.3769903807e+03 4.3769903807e+03 2.5500000000e-03 0.0000e+00 1.0000e+00
  1000011  2    1    2    0    0 +2.8358333627e+01 -1.7322497550e+02 +1.4263713443e+03 2.6698875542e+03 2.2501007207e+03 8.5192e+02 0.0000e+00
 -1000011  2    1    2    0    0 -2.8358333627e+01 +1.7322497550e+02 -3.4161191912e+03 4.0943453602e+03 2.2501072225e+03 1.7986e+03 0.0000e+00
       11  1    3    3    0    0 +5.4371925494e-02 -7.6088008213e-02 +6.2345374839e-03 9.3727379761e-02 5.1100000000e-04 0.0000e+00 1.0000e+00
  1000022  1    3    3    0    0 +2.8303961702e+01 -1.7314888749e+02 +1.4263651098e+03 2.6697938268e+03 2.2500000000e+03 0.0000e+00 0.0000e+00
      -11  1    4    4    0    0 -4.0753139038e-03 -9.9219815982e-02 -1.5449369138e-01 1.8365658649e-01 5.1100000000e-04 0.0000e+00 -1.0000e+00
  1000022  1    4    4    0    0 -2.8354258313e+01 +1.7332419532e+02 -3.4159646975e+03 4.0941617036e+03 2.2500000000e+03 0.0000e+00 0.0000e+00
<mgrwt>
<rscale>  0 0.64649633E+04</rscale>
<asrwt>0</asrwt>
<pdfrwt beam="1">  1        2 0.67338314E+00 0.64649633E+04</pdfrwt>
<pdfrwt beam="2">  1       -2 0.36726808E+00 0.64649633E+04</pdfrwt>
<totfact> 0.12532990E-03</totfact>
</mgrwt>
</event>
<event>
 8      1 +1.2359593e-08 4.93946400e+03 7.81860800e-03 7.83791400e-02
        2 -1    0    0  501    0 +0.0000000000e+00 +0.0000000000e+00 +4.1690628642e+03 4.1690628642e+03 2.5500000000e-03 0.0000e+00 1.0000e+00
       -2 -1    0    0    0  501 -0.0000000000e+00 -0.0000000000e+00 -1.4630568256e+03 1.4630568256e+03 2.5500000000e-03 0.0000e+00 -1.0000e+00
  1000011  2    1    2    0    0 -7.8215405713e+02 -6.5075672880e+02 +1.3110043375e+03 2.7958807396e+03 2.2501038749e+03 3.3077e+01 0.0000e+00
 -1000011  2    1    2    0    0 +7.8215405713e+02 +6.5075672880e+02 +1.3950017011e+03 2.8362389503e+03 2.2501049638e+03 9.3802e+02 0.0000e+00
       11  1    3    3    0    0 -1.0339774427e-01 -3.2486895595e-03 +1.5391287634e-01 1.8544832705e-01 5.1100000000e-04 0.0000e+00 1.0000e+00
  1000022  1    3    3    0    0 -7.8205065939e+02 -6.5075348011e+02 +1.3108504246e+03 2.7956952912e+03 2.2500000000e+03 0.0000e+00 0.0000e+00
      -11  1    4    4    0    0 +7.8210392622e-02 -5.0526327461e-02 +1.2126449537e-01 1.5288922101e-01 5.1100000000e-04 0.0000e+00 -1.0000e+00
  1000022  1    4    4    0    0 +7.8207584674e+02 +6.5080725513e+02 +1.3948804366e+03 2.8360860611e+03 2.2500000000e+03 0.0000e+00 0.0000e+00
<mgrwt>
<rscale>  0 0.49394639E+04</rscale>
<asrwt>0</asrwt>
<pdfrwt beam="1">  1        2 0.64139429E+00 0.49394639E+04</pdfrwt>
<pdfrwt beam="2">  1       -2 0.22508567E+00 0.49394639E+04</pdfrwt>
<totfact> 0.16505387E-02</totfact>
</mgrwt>
</event>
<event>
 8      1 +1.2359593e-08 4.57666300e+03 7.81860800e-03 7.89735100e-02
       -2 -1    0    0    0  501 -0.0000000000e+00 +0.0000000000e+00 +1.4822166433e+03 1.4822166433e+03 2.5500000000e-03 0.0000e+00 -1.0000e+00
        2 -1    0    0  501    0 +0.0000000000e+00 -0.0000000000e+00 -3.5328578397e+03 3.5328578397e+03 2.5500000000e-03 0.0000e+00 1.0000e+00
  1000011  2    1    2    0    0 -7.8456365744e+01 -2.8679583262e+02 -7.0560534107e+02 2.3768125396e+03 2.2501003756e+03 3.1986e+02 0.0000e+00
 -1000011  2    1    2    0    0 +7.8456365744e+01 +2.8679583262e+02 -1.3450358554e+03 2.6382619434e+03 2.2500883047e+03 2.2000e+01 0.0000e+00
       11  1    3    3    0    0 +3.8798969721e-02 +7.9165726578e-02 -2.7474204488e-02 9.2345357332e-02 5.1100000000e-04 0.0000e+00 1.0000e+00
  1000022  1    3    3    0    0 -7.8495164714e+01 -2.8687499834e+02 -7.0557786687e+02 2.3767201943e+03 2.2500000000e+03 0.0000e+00 0.0000e+00
      -11  1    4    4    0    0 -5.0762972694e-02 -5.1818925170e-02 -9.8975396761e-03 7.3214087873e-02 5.1100000000e-04 0.0000e+00 -1.0000e+00
  1000022  1    4    4    0    0 +7.8507128717e+01 +2.8684765154e+02 -1.3450259578e+03 2.6381887293e+03 2.2500000000e+03 0.0000e+00 0.0000e+00
<mgrwt>
<rscale>  0 0.45766628E+04</rscale>
<asrwt>0</asrwt>
<pdfrwt beam="1">  1        2 0.54351659E+00 0.45766628E+04</pdfrwt>
<pdfrwt beam="2">  1       -2 0.22803333E+00 0.45766628E+04</pdfrwt>
<totfact> 0.50953426E-02</totfact>
</mgrwt>
</event>
<event>
 8      1 +1.2359593e-08 5.14951000e+03 7.81860800e-03 7.80584900e-02
       -2 -1    0    0    0  501 -0.0000000000e+00 +0.0000000000e+00 +2.4997954976e+03 2.4997954976e+03 2.5500000000e-03 0.0000e+00 -1.0000e+00
        2 -1    0    0  501    0 +0.0000000000e+00 -0.0000000000e+00 -2.6519625630e+03 2.6519625630e+03 2.5500000000e-03 0.0000e+00 1.0000e+00
  1000011  2    1    2    0    0 +1.2333788709e+03 -1.4424785630e+02 -2.3232490819e+02 2.5804931299e+03 2.2500975639e+03 3.1595e+02 0.0000e+00
 -1000011  2    1    2    0    0 -1.2333788709e+03 +1.4424785630e+02 +8.0157842730e+01 2.5712649307e+03 2.2500993713e+03 6.5306e+02 0.0000e+00
       11  1    3    3    0    0 +1.0283695076e-01 -6.9707738660e-02 -7.4415435492e-02 1.4481893909e-01 5.1100000000e-04 0.0000e+00 1.0000e+00
  1000022  1    3    3    0    0 +1.2332760340e+03 -1.4417814857e+02 -2.3225049276e+02 2.5803483110e+03 2.2500000000e+03 0.0000e+00 0.0000e+00
      -11  1    4    4    0    0 -5.9842298331e-02 +1.0551567006e-01 +1.2831721567e-02 1.2198184793e-01 5.1100000000e-04 0.0000e+00 -1.0000e+00
  1000022  1    4    4    0    0 -1.2333190286e+03 +1.4414234063e+02 +8.0145011008e+01 2.5711429489e+03 2.2500000000e+03 0.0000e+00 0.0000e+00
<mgrwt>
<rscale>  0 0.51495103E+04</rscale>
<asrwt>0</asrwt>
<pdfrwt beam="1">  1        2 0.40799424E+00 0.51495103E+04</pdfrwt>
<pdfrwt beam="2">  1       -2 0.38458393E+00 0.51495103E+04</pdfrwt>
<totfact> 0.19088572E-02</totfact>
</mgrwt>
</event>
<event>
 8      1 +1.2359593e-08 4.92829900e+03 7.81860800e-03 7.83966400e-02
       -2 -1    0    0    0  501 -0.0000000000e+00 +0.0000000000e+00 +1.5595814690e+03 1.5595814690e+03 2.5500000000e-03 0.0000e+00 -1.0000e+00
        2 -1    0    0  501    0 +0.0000000000e+00 -0.0000000000e+00 -3.8933737944e+03 3.8933737944e+03 2.5500000000e-03 0.0000e+00 1.0000e+00
  1000011  2    1    2    0    0 +4.1283826867e+02 +6.6049112020e+02 -4.6501516889e+02 2.4260841660e+03 2.2501025126e+03 6.6263e+02 0.0000e+00
 -1000011  2    1    2    0    0 -4.1283826867e+02 -6.6049112020e+02 -1.8687771566e+03 3.0268710974e+03 2.2500970254e+03 5.0481e+01 0.0000e+00
       11  1    3    3    0    0 +3.8612684003e-02 -1.4421933087e-02 -1.1178737622e-01 1.1914532946e-01 5.1100000000e-04 0.0000e+00 1.0000e+00
  1000022  1    3    3    0    0 +4.1279965599e+02 +6.6050554214e+02 -4.6490338151e+02 2.4259650206e+03 2.2500000000e+03 0.0000e+00 0.0000e+00
      -11  1    4    4    0    0 +4.2611040764e-02 -5.2508056619e-02 -1.6926611946e-01 1.8227472807e-01 5.1100000000e-04 0.0000e+00 -1.0000e+00
  1000022  1    4    4    0    0 -4.1288087972e+02 -6.6043861215e+02 -1.8686078905e+03 3.0266888227e+03 2.2500000000e+03 0.0000e+00 0.0000e+00
<mgrwt>
<rscale>  0 0.49282994E+04</rscale>
<asrwt>0</asrwt>
<pdfrwt beam="1">  1        2 0.59898058E+00 0.49282994E+04</pdfrwt>
<pdfrwt beam="2">  1       -2 0.23993561E+00 0.49282994E+04</pdfrwt>
<totfact> 0.22495689E-02</totfact>
</mgrwt>
</event>
<event>
 8      1 +1.2359593e-08 4.56926600e+03 7.81860800e-03 7.89862100e-02
        2 -1    0    0  501    0 +0.0000000000e+00 +0.0000000000e+00 +2.7136696112e+03 2.7136696112e+03 2.5500000000e-03 0.0000e+00 1.0000e+00
       -2 -1    0    0    0  501 -0.0000000000e+00 -0.0000000000e+00 -1.9234277566e+03 1.9234277566e+03 2.5500000000e-03 0.0000e+00 -1.0000e+00
  1000011  2    1    2    0    0 -2.1876723867e+02 -1.3205596563e+02 +7.0177550843e+02 2.3708056304e+03 2.2500961290e+03 6.3809e+01 0.0000e+00
 -1000011  2    1    2    0    0 +2.1876723867e+02 +1.3205596563e+02 +8.8466346162e+01 2.2662917375e+03 2.2501009005e+03 1.2288e+03 0.0000e+00
       11  1    3    3    0    0 -2.5075438843e-02 -4.8416131508e-03 +1.2972472643e-01 1.3221567293e-01 5.1100000000e-04 0.0000e+00 1.0000e+00
  1000022  1    3    3    0    0 -2.1874216323e+02 -1.3205112401e+02 +7.0164578370e+02 2.3706734147e+03 2.2500000000e+03 0.0000e+00 0.0000e+00
      -11  1    4    4    0    0 -6.9043235277e-02 -5.6406413371e-02 -1.0773465340e-02 8.9805236199e-02 5.1100000000e-04 0.0000e+00 -1.0000e+00
  1000022  1    4    4    0    0 +2.1883628191e+02 +1.3211237204e+02 +8.8477119627e+01 2.2662019323e+03 2.2500000000e+03 0.0000e+00 0.0000e+00
<mgrwt>
<rscale>  0 0.45692658E+04</rscale>
<asrwt>0</asrwt>
<pdfrwt beam="1">  1        2 0.41748763E+00 0.45692658E+04</pdfrwt>
<pdfrwt beam="2">  1       -2 0.29591196E+00 0.45692658E+04</pdfrwt>
<totfact> 0.66104623E-02</totfact>
</mgrwt>
</event>
<event>
 8      1 +1.2359593e-08 7.58032600e+03 7.81860800e-03 7.52037800e-02
       -2 -1    0    0    0  501 -0.0000000000e+00 +0.0000000000e+00 +4.3191764766e+03 4.3191764766e+03 2.5500000000e-03 0.0000e+00 -1.0000e+00
        2 -1    0    0  501    0 +0.0000000000e+00 -0.0000000000e+00 -3.3259429863e+03 3.3259429863e+03 2.5500000000e-03 0.0000e+00 1.0000e+00
  1000011  2    1    2    0    0 -1.7649007698e+03 -2.4836356153e+03 +6.3581805882e+02 3.8406456688e+03 2.2501053204e+03 2.0958e+03 0.0000e+00
 -1000011  2    1    2    0    0 +1.7649007698e+03 +2.4836356153e+03 +3.5741543147e+02 3.8044737942e+03 2.2501009895e+03 4.5256e+02 0.0000e+00
       11  1    3    3    0    0 -1.7122815592e-01 -9.8086772169e-02 +9.6965334224e-02 2.1986958237e-01 5.1100000000e-04 0.0000e+00 1.0000e+00
  1000022  1    3    3    0    0 -1.7647295417e+03 -2.4835375285e+03 +6.3572109349e+02 3.8404257992e+03 2.2500000000e+03 0.0000e+00 0.0000e+00
      -11  1    4    4    0    0 +1.2107858297e-01 +8.4711835995e-02 +1.0455579577e-01 1.8102014635e-01 5.1100000000e-04 0.0000e+00 -1.0000e+00
  1000022  1    4    4    0    0 +1.7647796912e+03 +2.4835509034e+03 +3.5731087567e+02 3.8042927740e+03 2.2500000000e+03 0.0000e+00 0.0000e+00
<mgrwt>
<rscale>  0 0.75803258E+04</rscale>
<asrwt>0</asrwt>
<pdfrwt beam="1">  1        2 0.51168354E+00 0.75803258E+04</pdfrwt>
<pdfrwt beam="2">  1       -2 0.66448869E+00 0.75803258E+04</pdfrwt>
<totfact> 0.19834665E-04</totfact>
</mgrwt>
</event>
<event>
 8      1 +1.2359593e-08 5.13492200e+03 7.81860800e-03 7.80802500e-02
       -2 -1    0    0    0  501 -0.0000000000e+00 +0.0000000000e+00 +2.1276194581e+03 2.1276194581e+03 2.5500000000e-03 0.0000e+00 -1.0000e+00
        2 -1    0    0  501    0 +0.0000000000e+00 -0.0000000000e+00 -3.0982302959e+03 3.0982302959e+03 2.5500000000e-03 0.0000e+00 1.0000e+00
  1000011  2    1    2    0    0 +5.3003561320e+01 +7.3330508787e+02 +5.2646909028e+02 2.4250058790e+03 2.2500973491e+03 2.4202e+03 0.0000e+00
 -1000011  2    1    2    0    0 -5.3003561320e+01 -7.3330508787e+02 -1.4970799281e+03 2.8008438751e+03 2.2500960806e+03 2.0576e+02 0.0000e+00
       11  1    3    3    0    0 -5.7618195403e-02 +5.3568320839e-02 -5.1569002110e-02 9.4069359361e-02 5.1100000000e-04 0.0000e+00 1.0000e+00
  1000022  1    3    3    0    0 +5.3061179515e+01 +7.3325151955e+02 +5.2652065928e+02 2.4249118096e+03 2.2500000000e+03 0.0000e+00 0.0000e+00
      -11  1    4    4    0    0 +3.5967681312e-02 -7.6233452924e-02 +1.8867386624e-02 8.6379700058e-02 5.1100000000e-04 0.0000e+00 -1.0000e+00
  1000022  1    4    4    0    0 -5.3039529001e+01 -7.3322885442e+02 -1.4970987955e+03 2.8007574954e+03 2.2500000000e+03 0.0000e+00 0.0000e+00
<mgrwt>
<rscale>  0 0.51349216E+04</rscale>
<asrwt>0</asrwt>
<pdfrwt beam="1">  1        2 0.47665082E+00 0.51349216E+04</pdfrwt>
<pdfrwt beam="2">  1       -2 0.32732607E+00 0.51349216E+04</pdfrwt>
<totfact> 0.23423437E-02</totfact>
</mgrwt>
</event>
<event>
 8      1 +1.2359593e-08 4.86598600e+03 7.81860800e-03 7.84951900e-02
       -1 -1    0    0    0  501 -0.0000000000e+00 +0.0000000000e+00 +2.8554745878e+03 2.8554745878e+03 5.0400000000e-03 0.0000e+00 1.0000e+00
        1 -1    0    0  501    0 +0.0000000000e+00 -0.0000000000e+00 -2.0730197535e+03 2.0730197535e+03 5.0400000000e-03 0.0000e+00 -1.0000e+00
  1000011  2    1    2    0    0 +2.1387695532e+02 +3.3394651689e+02 +1.2381586621e+03 2.5987028907e+03 2.2501013785e+03 9.2611e+01 0.0000e+00
 -1000011  2    1    2    0    0 -2.1387695532e+02 -3.3394651689e+02 -4.5570382776e+02 2.3297914506e+03 2.2501107965e+03 1.2699e+03 0.0000e+00
       11  1    3    3    0    0 -1.5395455031e-02 +8.6269154638e-02 +1.3765398209e-01 1.6318169846e-01 5.1100000000e-04 0.0000e+00 1.0000e+00
  1000022  1    3    3    0    0 +2.1389235077e+02 +3.3386024774e+02 +1.2380210081e+03 2.5985397090e+03 2.2500000000e+03 0.0000e+00 0.0000e+00
      -11  1    4    4    0    0 -6.2049498123e-02 +7.1524269127e-02 -6.5831393613e-02 1.1532516747e-01 5.1100000000e-04 0.0000e+00 -1.0000e+00
  1000022  1    4    4    0    0 -2.1381490582e+02 -3.3401804116e+02 -4.5563799636e+02 2.3296761255e+03 2.2500000000e+03 0.0000e+00 0.0000e+00
<mgrwt>
<rscale>  0 0.48659861E+04</rscale>
<asrwt>0</asrwt>
<pdfrwt beam="1">  1        1 0.31892612E+00 0.48659861E+04</pdfrwt>
<pdfrwt beam="2">  1       -1 0.43930378E+00 0.48659861E+04</pdfrwt>
<totfact> 0.74501730E-03</totfact>
</mgrwt>
</event>
<event>
 8      1 +1.2359593e-08 4.85279100e+03 7.81860800e-03 7.85162600e-02
       -2 -1    0    0    0  501 -0.0000000000e+00 +0.0000000000e+00 +2.0205952479e+03 2.0205952479e+03 2.5500000000e-03 0.0000e+00 -1.0000e+00
        2 -1    0    0  501    0 +0.0000000000e+00 -0.0000000000e+00 -2.9136936202e+03 2.9136936202e+03 2.5500000000e-03 0.0000e+00 1.0000e+00
  1000011  2    1    2    0    0 +8.4347962179e+02 +2.9504125139e+02 -2.8279171824e+02 2.4375050156e+03 2.2501005162e+03 3.3260e+02 0.0000e+00
 -1000011  2    1    2    0    0 -8.4347962179e+02 -2.9504125139e+02 -6.1030665403e+02 2.4967838524e+03 2.2500995937e+03 1.5086e+02 0.0000e+00
       11  1    3    3    0    0 -2.4245530483e-02 -5.5534901409e-02 +4.0631711718e-02 7.2960040899e-02 5.1100000000e-04 0.0000e+00 1.0000e+00
  1000022  1    3    3    0    0 +8.4350386732e+02 +2.9509678629e+02 -2.8283234995e+02 2.4374320556e+03 2.2500000000e+03 0.0000e+00 0.0000e+00
      -11  1    4    4    0    0 +4.0781431432e-02 +3.7640737378e-02 +3.1515111129e-02 6.3823297005e-02 5.1100000000e-04 0.0000e+00 -1.0000e+00
  1000022  1    4    4    0    0 -8.4352040322e+02 -2.9507889212e+02 -6.1033816915e+02 2.4967200291e+03 2.2500000000e+03 0.0000e+00 0.0000e+00
<mgrwt>
<rscale>  0 0.48527911E+04</rscale>
<asrwt>0</asrwt>
<pdfrwt beam="1">  1        2 0.44826056E+00 0.48527911E+04</pdfrwt>
<pdfrwt beam="2">  1       -2 0.31086081E+00 0.48527911E+04</pdfrwt>
<totfact> 0.39550393E-02</totfact>
</mgrwt>
</event>
<event>
 8      1 +1.2359593e-08 5.25104400e+03 7.81860800e-03 7.79090600e-02
        2 -1    0    0  501    0 +0.0000000000e+00 +0.0000000000e+00 +4.5408237109e+03 4.5408237109e+03 2.5500000000e-03 0.0000e+00 1.0000e+00
       -2 -1    0    0    0  501 -0.0000000000e+00 -0.0000000000e+00 -1.5180873409e+03 1.5180873409e+03 2.5500000000e-03 0.0000e+00 -1.0000e+00
  1000011  2    1    2    0    0 -6.6538471454e+02 +6.4605691555e+01 +2.8685555761e+03 3.7065442367e+03 2.2500996359e+03 1.0551e+03 0.0000e+00
 -1000011  2    1    2    0    0 +6.6538471454e+02 -6.4605691555e+01 +1.5418079386e+02 2.3523668152e+03 2.2500993761e+03 5.9750e+02 0.0000e+00
       11  1    3    3    0    0 -9.1289205201e-02 +7.7498709526e-02 +1.9875519455e-01 2.3204236106e-01 5.1100000000e-04 0.0000e+00 1.0000e+00
  1000022  1    3    3    0    0 -6.6529342533e+02 +6.4528192846e+01 +2.8683568209e+03 3.7063121943e+03 2.2500000000e+03 0.0000e+00 0.0000e+00
      -11  1    4    4    0    0 +1.1037000944e-01 -4.7893272738e-02 -3.4977196288e-02 1.2529552836e-01 5.1100000000e-04 0.0000e+00 -1.0000e+00
  1000022  1    4    4    0    0 +6.6527434453e+02 -6.4557798282e+01 +1.5421577105e+02 2.3522415197e+03 2.2500000000e+03 0.0000e+00 0.0000e+00
<mgrwt>
<rscale>  0 0.52510445E+04</rscale>
<asrwt>0</asrwt>
<pdfrwt beam="1">  1        2 0.69858826E+00 0.52510445E+04</pdfrwt>
<pdfrwt beam="2">  1       -2 0.23355190E+00 0.52510445E+04</pdfrwt>
<totfact> 0.64325775E-03</totfact>
</mgrwt>
</event>
<event>
 8      1 +1.2359593e-08 5.01504200e+03 7.81860800e-03 7.82619100e-02
       -2 -1    0    0    0  501 -0.0000000000e+00 +0.0000000000e+00 +2.8206375812e+03 2.8206375812e+03 2.5500000000e-03 0.0000e+00 -1.0000e+00
        2 -1    0    0  501    0 +0.0000000000e+00 -0.0000000000e+00 -2.2291632946e+03 2.2291632946e+03 2.5500000000e-03 0.0000e+00 1.0000e+00
  1000011  2    1    2    0    0 +6.3889046706e+02 -7.0678849549e+01 +1.2028320756e+03 2.6311471710e+03 2.2501008655e+03 4.4881e+02 0.0000e+00
 -1000011  2    1    2    0    0 -6.3889046706e+02 +7.0678849549e+01 -6.1135778896e+02 2.4186537048e+03 2.2501001909e+03 7.3431e+02 0.0000e+00
       11  1    3    3    0    0 +1.8537519440e-02 +3.4902491697e-02 -5.2583792183e-02 6.5780995959e-02 5.1100000000e-04 0.0000e+00 1.0000e+00
  1000022  1    3    3    0    0 +6.3887192954e+02 -7.0713752040e+01 +1.2028846594e+03 2.6310813900e+03 2.2500000000e+03 0.0000e+00 0.0000e+00
      -11  1    4    4    0    0 -3.4764321888e-02 +6.0849411121e-03 +7.5621014737e-02 8.3452878863e-02 5.1100000000e-04 0.0000e+00 -1.0000e+00
  1000022  1    4    4    0    0 -6.3885570274e+02 +7.0672764607e+01 -6.1143340997e+02 2.4185702519e+03 2.2500000000e+03 0.0000e+00 0.0000e+00
<mgrwt>
<rscale>  0 0.50150421E+04</rscale>
<asrwt>0</asrwt>
<pdfrwt beam="1">  1        2 0.34294820E+00 0.50150421E+04</pdfrwt>
<pdfrwt beam="2">  1       -2 0.43394424E+00 0.50150421E+04</pdfrwt>
<totfact> 0.16059960E-02</totfact>
</mgrwt>
</event>
<event>
 8      1 +1.2359593e-08 5.40893800e+03 7.81860800e-03 7.76834500e-02
       -2 -1    0    0    0  501 -0.0000000000e+00 +0.0000000000e+00 +2.1372578301e+03 2.1372578301e+03 2.5500000000e-03 0.0000e+00 -1.0000e+00
        2 -1    0    0  501    0 +0.0000000000e+00 -0.0000000000e+00 -3.4222130588e+03 3.4222130588e+03 2.5500000000e-03 0.0000e+00 1.0000e+00
  1000011  2    1    2    0    0 +5.4914522806e+02 +1.3582529357e+03 -3.0973494032e+02 2.7028307772e+03 2.2500993218e+03 4.7925e+03 0.0000e+00
 -1000011  2    1    2    0    0 -5.4914522806e+02 -1.3582529357e+03 -9.7522028837e+02 2.8566401117e+03 2.2500947976e+03 7.7006e+02 0.0000e+00
       11  1    3    3    0    0 -1.0201489793e-02 +4.8287766869e-02 -1.0612170462e-01 1.1703783898e-01 5.1100000000e-04 0.0000e+00 1.0000e+00
  1000022  1    3    3    0    0 +5.4915542955e+02 +1.3582046479e+03 -3.0962881861e+02 2.7027137393e+03 2.2500000000e+03 0.0000e+00 0.0000e+00
      -11  1    4    4    0    0 +6.5482561817e-03 -1.3938185547e-01 -1.0837396824e-01 1.7667868770e-01 5.1100000000e-04 0.0000e+00 -1.0000e+00
  1000022  1    4    4    0    0 -5.4915177632e+02 -1.3581135539e+03 -9.7511191440e+02 2.8564634330e+03 2.2500000000e+03 0.0000e+00 0.0000e+00
<mgrwt>
<rscale>  0 0.54089377E+04</rscale>
<asrwt>0</asrwt>
<pdfrwt beam="1">  1        2 0.52649432E+00 0.54089377E+04</pdfrwt>
<pdfrwt beam="2">  1       -2 0.32880890E+00 0.54089377E+04</pdfrwt>
<totfact> 0.13677740E-02</totfact>
</mgrwt>
</event>
<event>
 8      1 +1.2359593e-08 4.55373100e+03 7.81860800e-03 7.90129700e-02
       -1 -1    0    0    0  501 -0.0000000000e+00 +0.0000000000e+00 +1.7964708755e+03 1.7964708755e+03 5.0400000000e-03 0.0000e+00 1.0000e+00
        1 -1    0    0  501    0 +0.0000000000e+00 -0.0000000000e+00 -2.8857221794e+03 2.8857221794e+03 5.0400000000e-03 0.0000e+00 -1.0000e+00
  1000011  2    1    2    0    0 -4.2333109091e+01 +3.4514571601e+02 -5.6075010551e+02 2.3448473810e+03 2.2501001982e+03 1.1748e+03 0.0000e+00
 -1000011  2    1    2    0    0 +4.2333109091e+01 -3.4514571601e+02 -5.2850119839e+02 2.3373456740e+03 2.2501008034e+03 1.2483e+02 0.0000e+00
       11  1    3    3    0    0 +8.2392775770e-02 -1.1253425928e-02 +2.5357432953e-02 8.6939457780e-02 5.1100000000e-04 0.0000e+00 1.0000e+00
  1000022  1    3    3    0    0 -4.2415501867e+01 +3.4515696943e+02 -5.6077546294e+02 2.3447604415e+03 2.2500000000e+03 0.0000e+00 0.0000e+00
      -11  1    4    4    0    0 +3.2368202198e-02 -1.1090616692e-01 -4.6331901197e-02 1.2447804720e-01 5.1100000000e-04 0.0000e+00 -1.0000e+00
  1000022  1    4    4    0    0 +4.2300740889e+01 -3.4503480984e+02 -5.2845486649e+02 2.3372211959e+03 2.2500000000e+03 0.0000e+00 0.0000e+00
<mgrwt>
<rscale>  0 0.45537307E+04</rscale>
<asrwt>0</asrwt>
<pdfrwt beam="1">  1        1 0.44395726E+00 0.45537307E+04</pdfrwt>
<pdfrwt beam="2">  1       -1 0.27638014E+00 0.45537307E+04</pdfrwt>
<totfact> 0.25422444E-02</totfact>
</mgrwt>
</event>
<event>
 8      1 +1.2359593e-08 4.63321400e+03 7.81860800e-03 7.88772100e-02
       -2 -1    0    0    0  501 -0.0000000000e+00 +0.0000000000e+00 +3.5155072847e+03 3.5155072847e+03 2.5500000000e-03 0.0000e+00 -1.0000e+00
        2 -1    0    0  501    0 +0.0000000000e+00 -0.0000000000e+00 -1.5265697680e+03 1.5265697680e+03 2.5500000000e-03 0.0000e+00 1.0000e+00
  1000011  2    1    2    0    0 +1.6376293770e+02 -3.0105665126e+02 +1.4641678143e+03 2.7063232825e+03 2.2500988675e+03 5.3640e+02 0.0000e+00
 -1000011  2    1    2    0    0 -1.6376293770e+02 +3.0105665126e+02 +5.2476970239e+02 2.3357537703e+03 2.2500908933e+03 2.1457e+03 0.0000e+00
       11  1    3    3    0    0 -8.2305225176e-02 -5.4775833122e-02 +5.6358673210e-02 1.1380291308e-01 5.1100000000e-04 0.0000e+00 1.0000e+00
  1000022  1    3    3    0    0 +1.6384524292e+02 -3.0100187543e+02 +1.4641114556e+03 2.7062094795e+03 2.2500000000e+03 0.0000e+00 0.0000e+00
      -11  1    4    4    0    0 -1.5033559076e-02 -2.1195211714e-02 +1.0674347161e-01 1.0986206941e-01 5.1100000000e-04 0.0000e+00 -1.0000e+00
  1000022  1    4    4    0    0 -1.6374790414e+02 +3.0107784647e+02 +5.2466295892e+02 2.3356439083e+03 2.2500000000e+03 0.0000e+00 0.0000e+00
<mgrwt>
<rscale>  0 0.46332136E+04</rscale>
<asrwt>0</asrwt>
<pdfrwt beam="1">  1        2 0.23485689E+00 0.46332136E+04</pdfrwt>
<pdfrwt beam="2">  1       -2 0.54084726E+00 0.46332136E+04</pdfrwt>
<totfact> 0.88264717E-03</totfact>
</mgrwt>
</event>
<event>
 8      1 +1.2359593e-08 4.58266900e+03 7.81860800e-03 7.89632200e-02
       -2 -1    0    0    0  501 -0.0000000000e+00 +0.0000000000e+00 +1.3106877098e+03 1.3106877098e+03 2.5500000000e-03 0.0000e+00 -1.0000e+00
        2 -1    0    0  501    0 +0.0000000000e+00 -0.0000000000e+00 -4.0056940696e+03 4.0056940697e+03 2.5500000000e-03 0.0000e+00 1.0000e+00
  1000011  2    1    2    0    0 +1.5705335091e+02 +1.5631530109e+02 -1.7786920546e+03 2.8767685067e+03 2.2501003061e+03 4.0759e+02 0.0000e+00
 -1000011  2    1    2    0    0 -1.5705335091e+02 -1.5631530109e+02 -9.1631430519e+02 2.4396132728e+03 2.2501068389e+03 6.2064e+02 0.0000e+00
       11  1    3    3    0    0 -9.1149642731e-02 -8.0220523869e-03 -5.2436291161e-02 1.0546296216e-01 5.1100000000e-04 0.0000e+00 1.0000e+00
  1000022  1    3    3    0    0 +1.5714450055e+02 +1.5632332314e+02 -1.7786396183e+03 2.8766630438e+03 2.2500000000e+03 0.0000e+00 0.0000e+00
      -11  1    4    4    0    0 +2.6331007489e-02 -8.9413194489e-02 +1.9531460046e-02 9.5235392048e-02 5.1100000000e-04 0.0000e+00 -1.0000e+00
  1000022  1    4    4    0    0 -1.5707968192e+02 -1.5622588789e+02 -9.1633383665e+02 2.4395180374e+03 2.2500000000e+03 0.0000e+00 0.0000e+00
<mgrwt>
<rscale>  0 0.45826691E+04</rscale>
<asrwt>0</asrwt>
<pdfrwt beam="1">  1        2 0.61626062E+00 0.45826691E+04</pdfrwt>
<pdfrwt beam="2">  1       -2 0.20164426E+00 0.45826691E+04</pdfrwt>
<totfact> 0.32911301E-02</totfact>
</mgrwt>
</event>
<event>
 8      1 +1.2359593e-08 5.03763100e+03 7.81860800e-03 7.82272800e-02
       -2 -1    0    0    0  501 -0.0000000000e+00 +0.0000000000e+00 +2.0632200112e+03 2.0632200112e+03 2.5500000000e-03 0.0000e+00 -1.0000e+00
        2 -1    0    0  501    0 +0.0000000000e+00 -0.0000000000e+00 -3.0750143624e+03 3.0750143624e+03 2.5500000000e-03 0.0000e+00 1.0000e+00
  1000011  2    1    2    0    0 +8.6059852253e+02 -9.7052249936e+01 -1.2494309762e+03 2.7155354638e+03 2.2501124715e+03 1.7496e+03 0.0000e+00
 -1000011  2    1    2    0    0 -8.6059852253e+02 +9.7052249936e+01 +2.3763662498e+02 2.4226989098e+03 2.2500999724e+03 1.0095e+03 0.0000e+00
       11  1    3    3    0    0 -2.6758689019e-02 -1.3468250156e-02 -1.5239275230e-01 1.5531011791e-01 5.1100000000e-04 0.0000e+00 1.0000e+00
  1000022  1    3    3    0    0 +8.6062528122e+02 -9.7038781686e+01 -1.2492785834e+03 2.7153801536e+03 2.2500000000e+03 0.0000e+00 0.0000e+00
      -11  1    4    4    0    0 -5.4203585916e-02 -1.2604248033e-02 +1.0887854097e-01 1.2227711550e-01 5.1100000000e-04 0.0000e+00 -1.0000e+00
  1000022  1    4    4    0    0 -8.6054431895e+02 +9.7064854184e+01 +2.3752774644e+02 2.4225766327e+03 2.2500000000e+03 0.0000e+00 0.0000e+00
<mgrwt>
<rscale>  0 0.50376309E+04</rscale>
<asrwt>0</asrwt>
<pdfrwt beam="1">  1        2 0.47307913E+00 0.50376309E+04</pdfrwt>
<pdfrwt beam="2">  1       -2 0.31741846E+00 0.50376309E+04</pdfrwt>
<totfact> 0.28128671E-02</totfact>
</mgrwt>
</event>
<event>
 8      1 +1.2359593e-08 4.72745500e+03 7.81860800e-03 7.87198300e-02
        2 -1    0    0  501    0 +0.0000000000e+00 +0.0000000000e+00 +3.0507484401e+03 3.0507484401e+03 2.5500000000e-03 0.0000e+00 1.0000e+00
       -2 -1    0    0    0  501 -0.0000000000e+00 -0.0000000000e+00 -1.8314218198e+03 1.8314218198e+03 2.5500000000e-03 0.0000e+00 -1.0000e+00
  1000011  2    1    2    0    0 -9.9772992367e+01 -1.5505855741e+02 +1.3327684695e+03 2.6216822014e+03 2.2500995457e+03 9.7692e+01 0.0000e+00
 -1000011  2    1    2    0    0 +9.9772992367e+01 +1.5505855741e+02 -1.1344184920e+02 2.2604880584e+03 2.2500976430e+03 5.5235e+02 0.0000e+00
       11  1    3    3    0    0 -9.0845929471e-02 -4.1576385842e-02 +1.0403003392e-01 1.4423622002e-01 5.1100000000e-04 0.0000e+00 1.0000e+00
  1000022  1    3    3    0    0 -9.9682146438e+01 -1.5501698102e+02 +1.3326644394e+03 2.6215379652e+03 2.2500000000e+03 0.0000e+00 0.0000e+00
      -11  1    4    4    0    0 +7.3974296042e-02 +7.3380631945e-02 -2.2626718877e-02 1.0662618217e-01 5.1100000000e-04 0.0000e+00 -1.0000e+00
  1000022  1    4    4    0    0 +9.9699018071e+01 +1.5498517677e+02 -1.1341922248e+02 2.2603814322e+03 2.2500000000e+03 0.0000e+00 0.0000e+00
<mgrwt>
<rscale>  0 0.47274548E+04</rscale>
<asrwt>0</asrwt>
<pdfrwt beam="1">  1        2 0.46934591E+00 0.47274548E+04</pdfrwt>
<pdfrwt beam="2">  1       -2 0.28175721E+00 0.47274548E+04</pdfrwt>
<totfact> 0.49408929E-02</totfact>
</mgrwt>
</event>
<event>
 8      1 +1.2359593e-08 4.71979900e+03 7.81860800e-03 7.87324700e-02
        2 -1    0    0  501    0 +0.0000000000e+00 +0.0000000000e+00 +3.4089557328e+03 3.4089557328e+03 2.5500000000e-03 0.0000e+00 1.0000e+00
       -2 -1    0    0    0  501 -0.0000000000e+00 -0.0000000000e+00 -1.6336746895e+03 1.6336746895e+03 2.5500000000e-03 0.0000e+00 -1.0000e+00
  1000011  2    1    2    0    0 -4.3345465777e+02 +1.7332318556e+02 +1.4612551995e+03 2.7232588794e+03 2.2500996198e+03 6.6569e+02 0.0000e+00
 -1000011  2    1    2    0    0 +4.3345465777e+02 -1.7332318556e+02 +3.1402584377e+02 2.3193715429e+03 2.2500996104e+03 4.0706e+02 0.0000e+00
       11  1    3    3    0    0 +3.2974146534e-05 -6.3651070708e-02 +1.3888356075e-01 1.5277553573e-01 5.1100000000e-04 0.0000e+00 1.0000e+00
  1000022  1    3    3    0    0 -4.3345469075e+02 +1.7338683663e+02 +1.4611163159e+03 2.7231061038e+03 2.2500000000e+03 0.0000e+00 0.0000e+00
      -11  1    4    4    0    0 -3.3497290009e-02 -9.1523661284e-02 +2.4819060336e-02 1.0057283600e-01 5.1100000000e-04 0.0000e+00 -1.0000e+00
  1000022  1    4    4    0    0 +4.3348815506e+02 -1.7323166190e+02 +3.1400102471e+02 2.3192709701e+03 2.2500000000e+03 0.0000e+00 0.0000e+00
<mgrwt>
<rscale>  0 0.47197986E+04</rscale>
<asrwt>0</asrwt>
<pdfrwt beam="1">  1        2 0.52445472E+00 0.47197986E+04</pdfrwt>
<pdfrwt beam="2">  1       -2 0.25133457E+00 0.47197986E+04</pdfrwt>
<totfact> 0.44054117E-02</totfact>
</mgrwt>
</event>
<event>
 8      1 +1.2359593e-08 4.80987100e+03 7.81860800e-03 7.85852500e-02
       -2 -1    0    0    0  501 -0.0000000000e+00 +0.0000000000e+00 +2.3042205224e+03 2.3042205224e+03 2.5500000000e-03 0.0000e+00 -1.0000e+00
        2 -1    0    0  501    0 +0.0000000000e+00 -0.0000000000e+00 -2.5100525580e+03 2.5100525580e+03 2.5500000000e-03 0.0000e+00 1.0000e+00
  1000011  2    1    2    0    0 -5.1256488370e+02 -4.5273755673e+02 -6.0643719728e+02 2.4286653608e+03 2.2501011767e+03 4.1816e+02 0.0000e+00
 -1000011  2    1    2    0    0 +5.1256488370e+02 +4.5273755673e+02 +4.0060516163e+02 2.3856077196e+03 2.2500990292e+03 1.2254e+03 0.0000e+00
       11  1    3    3    0    0 +7.6436107664e-02 +2.6144137088e-03 -4.3462965328e-02 8.7969334139e-02 5.1100000000e-04 0.0000e+00 1.0000e+00
  1000022  1    3    3    0    0 -5.1264131981e+02 -4.5274017115e+02 -6.0639373431e+02 2.4285773915e+03 2.2500000000e+03 0.0000e+00 0.0000e+00
      -11  1    4    4    0    0 +6.3478652507e-02 -4.3582076011e-02 +8.2095097895e-02 1.1255577506e-01 5.1100000000e-04 0.0000e+00 -1.0000e+00
  1000022  1    4    4    0    0 +5.1250140505e+02 +4.5278113881e+02 +4.0052306653e+02 2.3854951638e+03 2.2500000000e+03 0.0000e+00 0.0000e+00
<mgrwt>
<rscale>  0 0.48098709E+04</rscale>
<asrwt>0</asrwt>
<pdfrwt beam="1">  1        2 0.38616193E+00 0.48098709E+04</pdfrwt>
<pdfrwt beam="2">  1       -2 0.35449546E+00 0.48098709E+04</pdfrwt>
<totfact> 0.36997148E-02</totfact>
</mgrwt>
</event>
<event>
 8      1 +1.2359593e-08 5.38831000e+03 7.81860800e-03 7.77124700e-02
       -2 -1    0    0    0  501 -0.0000000000e+00 +0.0000000000e+00 +1.9122715802e+03 1.9122715802e+03 2.5500000000e-03 0.0000e+00 -1.0000e+00
        2 -1    0    0  501    0 +0.0000000000e+00 -0.0000000000e+00 -3.7957325971e+03 3.7957325971e+03 2.5500000000e-03 0.0000e+00 1.0000e+00
  1000011  2    1    2    0    0 +7.7536027173e+02 -9.7455461922e+02 -9.1240782701e+01 2.5733637664e+03 2.2500968728e+03 7.3090e+02 0.0000e+00
 -1000011  2    1    2    0    0 -7.7536027173e+02 +9.7455461922e+02 -1.7922202342e+03 3.1346404109e+03 2.2501059711e+03 2.0942e+02 0.0000e+00
       11  1    3    3    0    0 -2.5827979410e-02 +3.3121546885e-02 -5.1154072113e-02 6.6190041302e-02 5.1100000000e-04 0.0000e+00 1.0000e+00
  1000022  1    3    3    0    0 +7.7538609971e+02 -9.7458774076e+02 -9.1189628629e+01 2.5732975763e+03 2.2500000000e+03 0.0000e+00 0.0000e+00
      -11  1    4    4    0    0 +3.3415718728e-02 -1.8447735542e-02 +2.6888223488e-02 4.6692251132e-02 5.1100000000e-04 0.0000e+00 -1.0000e+00
  1000022  1    4    4    0    0 -7.7539368745e+02 +9.7457306695e+02 -1.7922471225e+03 3.1345937187e+03 2.2500000000e+03 0.0000e+00 0.0000e+00
<mgrwt>
<rscale>  0 0.53883102E+04</rscale>
<asrwt>0</asrwt>
<pdfrwt beam="1">  1        2 0.58395886E+00 0.53883102E+04</pdfrwt>
<pdfrwt beam="2">  1       -2 0.29419563E+00 0.53883102E+04</pdfrwt>
<totfact> 0.12005875E-02</totfact>
</mgrwt>
</event>
<event>
 8      1 +1.2359593e-08 4.69006700e+03 7.81860800e-03 7.87818100e-02
        2 -1    0    0  501    0 +0.0000000000e+00 +0.0000000000e+00 +4.3043209514e+03 4.3043209514e+03 2.5500000000e-03 0.0000e+00 1.0000e+00
       -2 -1    0    0    0  501 -0.0000000000e+00 -0.0000000000e+00 -1.2775956679e+03 1.2775956679e+03 2.5500000000e-03 0.0000e+00 -1.0000e+00
  1000011  2    1    2    0    0 +1.7202786694e+02 -2.0292774856e+02 +7.9393037060e+02 2.4008423994e+03 2.2500990057e+03 2.5265e+03 0.0000e+00
 -1000011  2    1    2    0    0 -1.7202786694e+02 +2.0292774856e+02 +2.2327949129e+03 3.1810742199e+03 2.2501303988e+03 1.2132e+03 0.0000e+00
       11  1    3    3    0    0 +7.7151896856e-03 +8.7934228202e-02 +5.5448785485e-02 1.0424385547e-01 5.1100000000e-04 0.0000e+00 1.0000e+00
  1000022  1    3    3    0    0 +1.7202015175e+02 -2.0301568279e+02 +7.9387492181e+02 2.4007381556e+03 2.2500000000e+03 0.0000e+00 0.0000e+00
      -11  1    4    4    0    0 +5.7014161160e-02 -1.0096974669e-01 +1.0572793242e-01 1.5692087471e-01 5.1100000000e-04 0.0000e+00 -1.0000e+00
  1000022  1    4    4    0    0 -1.7208488111e+02 +2.0302871831e+02 +2.2326891849e+03 3.1809172990e+03 2.2500000000e+03 0.0000e+00 0.0000e+00
<mgrwt>
<rscale>  0 0.46900669E+04</rscale>
<asrwt>0</asrwt>
<pdfrwt beam="1">  1        2 0.66220322E+00 0.46900669E+04</pdfrwt>
<pdfrwt beam="2">  1       -2 0.19655318E+00 0.46900669E+04</pdfrwt>
<totfact> 0.19522225E-02</totfact>
</mgrwt>
</event>
<event>
 8      1 +1.2359593e-08 5.85491700e+03 7.81860800e-03 7.70865500e-02
       -2 -1    0    0    0  501 -0.0000000000e+00 +0.0000000000e+00 +2.6865911872e+03 2.6865911872e+03 2.5500000000e-03 0.0000e+00 -1.0000e+00
        2 -1    0    0  501    0 +0.0000000000e+00 -0.0000000000e+00 -3.1899207249e+03 3.1899207249e+03 2.5500000000e-03 0.0000e+00 1.0000e+00
  1000011  2    1    2    0    0 -7.3868943953e+02 +8.2619282661e+02 -1.7668050902e+03 3.0680293987e+03 2.2500994399e+03 1.2841e+03 0.0000e+00
 -1000011  2    1    2    0    0 +7.3868943953e+02 -8.2619282661e+02 +1.2634755526e+03 2.8084825134e+03 2.2500993048e+03 6.0716e+01 0.0000e+00
       11  1    3    3    0    0 -1.2752737206e-01 +1.8678271899e-02 -1.3333456427e-01 1.8544669055e-01 5.1100000000e-04 0.0000e+00 1.0000e+00
  1000022  1    3    3    0    0 -7.3856191216e+02 +8.2617414834e+02 -1.7666717557e+03 3.0678439520e+03 2.2500000000e+03 0.0000e+00 0.0000e+00
      -11  1    4    4    0    0 +1.5949560976e-03 +6.6798814107e-02 +2.2937862518e-02 7.0647235412e-02 5.1100000000e-04 0.0000e+00 -1.0000e+00
  1000022  1    4    4    0    0 +7.3868784457e+02 -8.2625962543e+02 +1.2634526147e+03 2.8084118661e+03 2.2500000000e+03 0.0000e+00 0.0000e+00
<mgrwt>
<rscale>  0 0.58549169E+04</rscale>
<asrwt>0</asrwt>
<pdfrwt beam="1">  1        2 0.49075704E+00 0.58549169E+04</pdfrwt>
<pdfrwt beam="2">  1       -2 0.41332172E+00 0.58549169E+04</pdfrwt>
<totfact> 0.54432197E-03</totfact>
</mgrwt>
</event>
<event>
 8      1 +1.2359593e-08 5.00025000e+03 7.81860800e-03 7.82846900e-02
       -2 -1    0    0    0  501 -0.0000000000e+00 +0.0000000000e+00 +1.6147355622e+03 1.6147355622e+03 2.5500000000e-03 0.0000e+00 -1.0000e+00
        2 -1    0    0  501    0 +0.0000000000e+00 -0.0000000000e+00 -3.8709901930e+03 3.8709901930e+03 2.5500000000e-03 0.0000e+00 1.0000e+00
  1000011  2    1    2    0    0 -6.9228893865e+02 +6.6168518282e+02 -1.6988020103e+03 2.9775775681e+03 2.2500996975e+03 5.1934e+02 0.0000e+00
 -1000011  2    1    2    0    0 +6.9228893865e+02 -6.6168518282e+02 -5.5745262056e+02 2.5081481871e+03 2.2501028084e+03 2.0394e+01 0.0000e+00
       11  1    3    3    0    0 -9.3147581852e-02 +1.0979894066e-02 -1.7732980297e-01 2.0060695350e-01 5.1100000000e-04 0.0000e+00 1.0000e+00
  1000022  1    3    3    0    0 -6.9219579107e+02 +6.6167420293e+02 -1.6986246805e+03 2.9773769612e+03 2.2500000000e+03 0.0000e+00 0.0000e+00
      -11  1    4    4    0    0 -1.5190705033e-02 -9.3143958376e-02 +4.1959440678e-02 1.0328315396e-01 5.1100000000e-04 0.0000e+00 -1.0000e+00
  1000022  1    4    4    0    0 +6.9230412935e+02 -6.6159203886e+02 -5.5749458000e+02 2.5080449039e+03 2.2500000000e+03 0.0000e+00 0.0000e+00
<mgrwt>
<rscale>  0 0.50002502E+04</rscale>
<asrwt>0</asrwt>
<pdfrwt beam="1">  1        2 0.59553695E+00 0.50002502E+04</pdfrwt>
<pdfrwt beam="2">  1       -2 0.24842086E+00 0.50002502E+04</pdfrwt>
<totfact> 0.20641197E-02</totfact>
</mgrwt>
</event>
<event>
 8      1 +1.2359593e-08 4.95654200e+03 7.81860800e-03 7.83524600e-02
       -1 -1    0    0    0  501 -0.0000000000e+00 +0.0000000000e+00 +1.4476961019e+03 1.4476961019e+03 5.0400000000e-03 0.0000e+00 -1.0000e+00
        1 -1    0    0  501    0 +0.0000000000e+00 -0.0000000000e+00 -4.2424840960e+03 4.2424840960e+03 5.0400000000e-03 0.0000e+00 1.0000e+00
  1000011  2    1    2    0    0 +7.6942401500e+02 +3.6866707270e+02 -2.0774901250e+03 3.1791255055e+03 2.2500988945e+03 8.7683e+01 0.0000e+00
 -1000011  2    1    2    0    0 -7.6942401500e+02 -3.6866707270e+02 -7.1729786913e+02 2.5110546924e+03 2.2501001555e+03 8.9831e+03 0.0000e+00
       11  1    3    3    0    0 +4.0100286075e-02 +1.0793884922e-01 -1.5772801853e-01 1.9528752373e-01 5.1100000000e-04 0.0000e+00 1.0000e+00
  1000022  1    3    3    0    0 +7.6938391472e+02 +3.6855913385e+02 -2.0773323970e+03 3.1789302180e+03 2.2500000000e+03 0.0000e+00 0.0000e+00
      -11  1    4    4    0    0 -7.6497882385e-03 -8.4591941745e-02 +3.8863113108e-02 9.3407270093e-02 5.1100000000e-04 0.0000e+00 -1.0000e+00
  1000022  1    4    4    0    0 -7.6941636522e+02 -3.6858248076e+02 -7.1733673225e+02 2.5109612852e+03 2.2500000000e+03 0.0000e+00 0.0000e+00
<mgrwt>
<rscale>  0 0.49565422E+04</rscale>
<asrwt>0</asrwt>
<pdfrwt beam="1">  1        1 0.65268985E+00 0.49565422E+04</pdfrwt>
<pdfrwt beam="2">  1       -1 0.22272248E+00 0.49565422E+04</pdfrwt>
<totfact> 0.43890219E-03</totfact>
</mgrwt>
</event>
<event>
 8      1 +1.2359593e-08 4.55583300e+03 7.81860800e-03 7.90093400e-02
        2 -1    0    0  501    0 +0.0000000000e+00 +0.0000000000e+00 +3.0907131207e+03 3.0907131207e+03 2.5500000000e-03 0.0000e+00 1.0000e+00
       -2 -1    0    0    0  501 -0.0000000000e+00 -0.0000000000e+00 -1.6788696822e+03 1.6788696822e+03 2.5500000000e-03 0.0000e+00 -1.0000e+00
  1000011  2    1    2    0    0 -2.6849581053e+02 -2.3173792234e+02 +7.1926823121e+02 2.3887418472e+03 2.2500996331e+03 2.5548e+03 0.0000e+00
 -1000011  2    1    2    0    0 +2.6849581053e+02 +2.3173792234e+02 +6.9257520730e+02 2.3808409557e+03 2.2501001697e+03 3.9361e+02 0.0000e+00
       11  1    3    3    0    0 -3.6607950157e-02 -9.7173528378e-02 +8.1263553539e-02 1.3185925253e-01 5.1100000000e-04 0.0000e+00 1.0000e+00
  1000022  1    3    3    0    0 -2.6845920258e+02 -2.3164074881e+02 +7.1918696765e+02 2.3886099879e+03 2.2500000000e+03 0.0000e+00 0.0000e+00
      -11  1    4    4    0    0 -2.3397726849e-02 +6.3772584946e-02 -4.9253281205e-02 8.3907942295e-02 5.1100000000e-04 0.0000e+00 -1.0000e+00
  1000022  1    4    4    0    0 +2.6851920826e+02 +2.3167414975e+02 +6.9262446059e+02 2.3807570477e+03 2.2500000000e+03 0.0000e+00 0.0000e+00
<mgrwt>
<rscale>  0 0.45558334E+04</rscale>
<asrwt>0</asrwt>
<pdfrwt beam="1">  1        2 0.47549432E+00 0.45558334E+04</pdfrwt>
<pdfrwt beam="2">  1       -2 0.25828765E+00 0.45558334E+04</pdfrwt>
<totfact> 0.65724475E-02</totfact>
</mgrwt>
</event>
<event>
 8      1 +1.2359593e-08 5.78206800e+03 7.81860800e-03 7.71802600e-02
       -2 -1    0    0    0  501 -0.0000000000e+00 +0.0000000000e+00 +2.0501494201e+03 2.0501494201e+03 2.5500000000e-03 0.0000e+00 -1.0000e+00
        2 -1    0    0  501    0 +0.0000000000e+00 -0.0000000000e+00 -4.0768138317e+03 4.0768138317e+03 2.5500000000e-03 0.0000e+00 1.0000e+00
  1000011  2    1    2    0    0 +9.6382761850e+02 -6.9993932453e+02 -2.4648038143e+03 3.5435956037e+03 2.2500962698e+03 5.2746e+02 0.0000e+00
 -1000011  2    1    2    0    0 -9.6382761850e+02 +6.9993932453e+02 +4.3813940274e+02 2.5833676481e+03 2.2500985607e+03 6.5304e+02 0.0000e+00
       11  1    3    3    0    0 +9.3031149150e-02 +4.8706799971e-02 -7.5585917092e-02 1.2938562056e-01 5.1100000000e-04 0.0000e+00 1.0000e+00
  1000022  1    3    3    0    0 +9.6373458735e+02 -6.9998803133e+02 -2.4647282283e+03 3.5434662180e+03 2.2500000000e+03 0.0000e+00 0.0000e+00
      -11  1    4    4    0    0 -3.0657472912e-02 -6.6432045923e-02 +4.7781161070e-02 8.7386482364e-02 5.1100000000e-04 0.0000e+00 -1.0000e+00
  1000022  1    4    4    0    0 -9.6379696103e+02 +7.0000575657e+02 +4.3809162158e+02 2.5832802616e+03 2.2500000000e+03 0.0000e+00 0.0000e+00
<mgrwt>
<rscale>  0 0.57820680E+04</rscale>
<asrwt>0</asrwt>
<pdfrwt beam="1">  1        2 0.62720213E+00 0.57820680E+04</pdfrwt>
<pdfrwt beam="2">  1       -2 0.31540760E+00 0.57820680E+04</pdfrwt>
<totfact> 0.51457131E-03</totfact>
</mgrwt>
</event>
<event>
 8      1 +1.2359593e-08 4.80162000e+03 7.81860800e-03 7.85986000e-02
       -2 -1    0    0    0  501 -0.0000000000e+00 +0.0000000000e+00 +1.4713737798e+03 1.4713737798e+03 2.5500000000e-03 0.0000e+00 -1.0000e+00
        2 -1    0    0  501    0 +0.0000000000e+00 -0.0000000000e+00 -3.9173521340e+03 3.9173521340e+03 2.5500000000e-03 0.0000e+00 1.0000e+00
  1000011  2    1    2    0    0 +5.8496370571e+02 -7.3616923819e+01 -1.8900942439e+03 2.9971669326e+03 2.2501003050e+03 1.6387e+02 0.0000e+00
 -1000011  2    1    2    0    0 -5.8496370571e+02 +7.3616923819e+01 -5.5588411039e+02 2.3915589813e+03 2.2500989374e+03 8.7101e+01 0.0000e+00
       11  1    3    3    0    0 +2.3152700962e-02 +1.1352497056e-02 -2.1109204594e-01 2.1266179549e-01 5.1100000000e-04 0.0000e+00 1.0000e+00
  1000022  1    3    3    0    0 +5.8494055301e+02 -7.3628276316e+01 -1.8898831518e+03 2.9969542708e+03 2.2500000000e+03 0.0000e+00 0.0000e+00
      -11  1    4    4    0    0 -4.5359512121e-02 -8.7031460192e-02 +1.1530447758e-02 9.8818887586e-02 5.1100000000e-04 0.0000e+00 -1.0000e+00
  1000022  1    4    4    0    0 -5.8491834620e+02 +7.3703955279e+01 -5.5589564084e+02 2.3914601624e+03 2.2500000000e+03 0.0000e+00 0.0000e+00
<mgrwt>
<rscale>  0 0.48016202E+04</rscale>
<asrwt>0</asrwt>
<pdfrwt beam="1">  1        2 0.60266956E+00 0.48016202E+04</pdfrwt>
<pdfrwt beam="2">  1       -2 0.22636520E+00 0.48016202E+04</pdfrwt>
<totfact> 0.26440228E-02</totfact>
</mgrwt>
</event>
<event>
 8      1 +1.2359593e-08 4.70604800e+03 7.81860800e-03 7.87552400e-02
        2 -1    0    0  501    0 +0.0000000000e+00 +0.0000000000e+00 +1.5825604644e+03 1.5825604644e+03 2.5500000000e-03 0.0000e+00 1.0000e+00
       -2 -1    0    0    0  501 -0.0000000000e+00 -0.0000000000e+00 -3.4985844461e+03 3.4985844461e+03 2.5500000000e-03 0.0000e+00 -1.0000e+00
  1000011  2    1    2    0    0 +5.6424158709e+02 -3.0235847516e+02 -1.2311169928e+03 2.6435578303e+03 2.2501021613e+03 2.1231e+02 0.0000e+00
 -1000011  2    1    2    0    0 -5.6424158709e+02 +3.0235847516e+02 -6.8490698891e+02 2.4375870802e+03 2.2500986587e+03 3.5404e+02 0.0000e+00
       11  1    3    3    0    0 -2.4690070274e-02 +4.5044469072e-02 -1.2413116484e-01 1.3434065233e-01 5.1100000000e-04 0.0000e+00 1.0000e+00
  1000022  1    3    3    0    0 +5.6426627716e+02 -3.0240351962e+02 -1.2309928617e+03 2.6434234897e+03 2.2500000000e+03 0.0000e+00 0.0000e+00
      -11  1    4    4    0    0 -8.7798913837e-02 -6.2477892921e-02 -3.8981771302e-02 1.1459483147e-01 5.1100000000e-04 0.0000e+00 -1.0000e+00
  1000022  1    4    4    0    0 -5.6415378818e+02 +3.0242095305e+02 -6.8486800714e+02 2.4374724853e+03 2.2500000000e+03 0.0000e+00 0.0000e+00
<mgrwt>
<rscale>  0 0.47060478E+04</rscale>
<asrwt>0</asrwt>
<pdfrwt beam="1">  1        2 0.24347084E+00 0.47060478E+04</pdfrwt>
<pdfrwt beam="2">  1       -2 0.53824376E+00 0.47060478E+04</pdfrwt>
<totfact> 0.84346279E-03</totfact>
</mgrwt>
</event>
<event>
 8      1 +1.2359593e-08 4.62736400e+03 7.81860800e-03 7.88871100e-02
       -2 -1    0    0    0  501 -0.0000000000e+00 +0.0000000000e+00 +1.7497112724e+03 1.7497112724e+03 2.5500000000e-03 0.0000e+00 -1.0000e+00
        2 -1    0    0  501    0 +0.0000000000e+00 -0.0000000000e+00 -3.0594333065e+03 3.0594333065e+03 2.5500000000e-03 0.0000e+00 1.0000e+00
  1000011  2    1    2    0    0 -5.1530980394e+02 -1.2065919791e+02 -5.5055377541e+02 2.3761647284e+03 2.2500992247e+03 1.7279e+03 0.0000e+00
 -1000011  2    1    2    0    0 +5.1530980394e+02 +1.2065919791e+02 -7.5916825868e+02 2.4329798504e+03 2.2501003692e+03 2.5843e+02 0.0000e+00
       11  1    3    3    0    0 +4.2715001044e-02 +6.9362197574e-02 -3.8459691923e-02 9.0083817945e-02 5.1100000000e-04 0.0000e+00 1.0000e+00
  1000022  1    3    3    0    0 -5.1535251894e+02 -1.2072856011e+02 -5.5051531572e+02 2.3760746446e+03 2.2500000000e+03 0.0000e+00 0.0000e+00
      -11  1    4    4    0    0 +6.9370598888e-02 -8.0323221779e-02 -9.7783197504e-03 1.0658318979e-01 5.1100000000e-04 0.0000e+00 -1.0000e+00
  1000022  1    4    4    0    0 +5.1524043334e+02 +1.2073952114e+02 -7.5915848036e+02 2.4328732672e+03 2.2500000000e+03 0.0000e+00 0.0000e+00
<mgrwt>
<rscale>  0 0.46273642E+04</rscale>
<asrwt>0</asrwt>
<pdfrwt beam="1">  1        2 0.47068205E+00 0.46273642E+04</pdfrwt>
<pdfrwt beam="2">  1       -2 0.26918635E+00 0.46273642E+04</pdfrwt>
<totfact> 0.58683221E-02</totfact>
</mgrwt>
</event>
<event>
 8      1 +1.2359593e-08 6.13766300e+03 7.81860800e-03 7.67356400e-02
       -1 -1    0    0    0  501 -0.0000000000e+00 +0.0000000000e+00 +3.1863995405e+03 3.1863995405e+03 5.0400000000e-03 0.0000e+00 -1.0000e+00
        1 -1    0    0  501    0 +0.0000000000e+00 -0.0000000000e+00 -2.9556012210e+03 2.9556012210e+03 5.0400000000e-03 0.0000e+00 1.0000e+00
  1000011  2    1    2    0    0 -1.9782482572e+03 +5.8594561855e+02 +4.2861505131e+02 3.0827703268e+03 2.2501030178e+03 4.3481e+03 0.0000e+00
 -1000011  2    1    2    0    0 +1.9782482572e+03 -5.8594561855e+02 -1.9781673177e+02 3.0592304347e+03 2.2501024328e+03 2.6174e+02 0.0000e+00
       11  1    3    3    0    0 -1.7498592056e-01 -1.3181066818e-02 +9.0856035065e-02 1.9760792649e-01 5.1100000000e-04 0.0000e+00 1.0000e+00
  1000022  1    3    3    0    0 -1.9780732713e+03 +5.8595879961e+02 +4.2852419528e+02 3.0825727189e+03 2.2500000000e+03 0.0000e+00 0.0000e+00
      -11  1    4    4    0    0 -1.9225137371e-02 +4.2982053275e-02 +2.4517881720e-02 5.3089076288e-02 5.1100000000e-04 0.0000e+00 -1.0000e+00
  1000022  1    4    4    0    0 +1.9782674824e+03 -5.8598860060e+02 -1.9784124966e+02 3.0591773456e+03 2.2500000000e+03 0.0000e+00 0.0000e+00
<mgrwt>
<rscale>  0 0.61376629E+04</rscale>
<asrwt>0</asrwt>
<pdfrwt beam="1">  1        1 0.45470788E+00 0.61376629E+04</pdfrwt>
<pdfrwt beam="2">  1       -1 0.49021531E+00 0.61376629E+04</pdfrwt>
<totfact> 0.74176997E-04</totfact>
</mgrwt>
</event>
<event>
 8      1 +1.2359593e-08 4.59911200e+03 7.81860800e-03 7.89351100e-02
        2 -1    0    0  501    0 +0.0000000000e+00 +0.0000000000e+00 +2.4197542295e+03 2.4197542295e+03 2.5500000000e-03 0.0000e+00 1.0000e+00
       -2 -1    0    0    0  501 -0.0000000000e+00 -0.0000000000e+00 -2.1853286066e+03 2.1853286066e+03 2.5500000000e-03 0.0000e+00 -1.0000e+00
  1000011  2    1    2    0    0 -2.9950383368e+02 -3.5507806026e+02 +2.1338162612e+02 2.3074366385e+03 2.2500998083e+03 1.5760e+02 0.0000e+00
 -1000011  2    1    2    0    0 +2.9950383368e+02 +3.5507806026e+02 +2.1043996818e+01 2.2976461975e+03 2.2501004920e+03 3.5039e+02 0.0000e+00
       11  1    3    3    0    0 +6.6394438498e-02 +3.0234681423e-02 -3.4811891700e-02 8.0836167921e-02 5.1100000000e-04 0.0000e+00 1.0000e+00
  1000022  1    3    3    0    0 -2.9957022812e+02 -3.5510829494e+02 +2.1341643802e+02 2.3073558024e+03 2.2500000000e+03 0.0000e+00 0.0000e+00
      -11  1    4    4    0    0 +1.0363495329e-01 +4.3189139923e-02 +3.9296548459e-02 1.1895370745e-01 5.1100000000e-04 0.0000e+00 -1.0000e+00
  1000022  1    4    4    0    0 +2.9940019872e+02 +3.5503487112e+02 +2.1004700270e+01 2.2975272438e+03 2.2500000000e+03 0.0000e+00 0.0000e+00
<mgrwt>
<rscale>  0 0.45991121E+04</rscale>
<asrwt>0</asrwt>
<pdfrwt beam="1">  1        2 0.37226988E+00 0.45991121E+04</pdfrwt>
<pdfrwt beam="2">  1       -2 0.33620440E+00 0.45991121E+04</pdfrwt>
<totfact> 0.55287448E-02</totfact>
</mgrwt>
</event>
<event>
 8      1 +1.2359593e-08 4.80058900e+03 7.81860800e-03 7.86002700e-02
        2 -1    0    0  501    0 +0.0000000000e+00 +0.0000000000e+00 +1.7195545451e+03 1.7195545451e+03 2.5500000000e-03 0.0000e+00 1.0000e+00
       -2 -1    0    0    0  501 -0.0000000000e+00 -0.0000000000e+00 -3.3505273815e+03 3.3505273815e+03 2.5500000000e-03 0.0000e+00 -1.0000e+00
  1000011  2    1    2    0    0 +6.7790704891e+02 -7.3620610589e+01 -3.0515964326e+02 2.3708776751e+03 2.2501023491e+03 1.1395e+03 0.0000e+00
 -1000011  2    1    2    0    0 -6.7790704891e+02 +7.3620610589e+01 -1.3258131931e+03 2.6992042514e+03 2.2500988882e+03 4.6089e+01 0.0000e+00
       11  1    3    3    0    0 -8.9125779830e-03 -4.6907588473e-02 +7.2394159459e-02 8.6723301460e-02 5.1100000000e-04 0.0000e+00 1.0000e+00
  1000022  1    3    3    0    0 +6.7791596149e+02 -7.3573703000e+01 -3.0523203742e+02 2.3707909518e+03 2.2500000000e+03 0.0000e+00 0.0000e+00
      -11  1    4    4    0    0 -1.3208822353e-01 -5.7778633197e-03 -8.5376931289e-02 1.5738539837e-01 5.1100000000e-04 0.0000e+00 -1.0000e+00
  1000022  1    4    4    0    0 -6.7777496069e+02 +7.3626388452e+01 -1.3257278162e+03 2.6990468660e+03 2.2500000000e+03 0.0000e+00 0.0000e+00
<mgrwt>
<rscale>  0 0.48005894E+04</rscale>
<asrwt>0</asrwt>
<pdfrwt beam="1">  1        2 0.26454685E+00 0.48005894E+04</pdfrwt>
<pdfrwt beam="2">  1       -2 0.51546575E+00 0.48005894E+04</pdfrwt>
<totfact> 0.94615568E-03</totfact>
</mgrwt>
</event>
<event>
 8      1 +1.2359593e-08 5.23966700e+03 7.81860800e-03 7.79256400e-02
        2 -1    0    0  501    0 +0.0000000000e+00 +0.0000000000e+00 +4.0704581864e+03 4.0704581864e+03 2.5500000000e-03 0.0000e+00 1.0000e+00
       -2 -1    0    0    0  501 -0.0000000000e+00 -0.0000000000e+00 -1.6861804883e+03 1.6861804883e+03 2.5500000000e-03 0.0000e+00 -1.0000e+00
  1000011  2    1    2    0    0 -1.0447950460e+03 +2.5255638528e+02 +3.0964027147e+02 2.5128066247e+03 2.2500974689e+03 1.1354e+03 0.0000e+00
 -1000011  2    1    2    0    0 +1.0447950460e+03 -2.5255638528e+02 +2.0746374267e+03 3.2438320499e+03 2.2500987757e+03 1.9425e+03 0.0000e+00
       11  1    3    3    0    0 -5.6662279207e-02 -9.2597914956e-04 +1.1072739280e-01 1.2438765046e-01 5.1100000000e-04 0.0000e+00 1.0000e+00
  1000022  1    3    3    0    0 -1.0447383837e+03 +2.5255731125e+02 +3.0952954407e+02 2.5126822371e+03 2.2500000000e+03 0.0000e+00 0.0000e+00
      -11  1    4    4    0    0 +1.6076457995e-02 -1.0341135640e-01 +6.3972140926e-02 1.2265829389e-01 5.1100000000e-04 0.0000e+00 -1.0000e+00
  1000022  1    4    4    0    0 +1.0447789695e+03 -2.5245297392e+02 +2.0745734545e+03 3.2437093917e+03 2.2500000000e+03 0.0000e+00 0.0000e+00
<mgrwt>
<rscale>  0 0.52396668E+04</rscale>
<asrwt>0</asrwt>
<pdfrwt beam="1">  1        2 0.62622433E+00 0.52396668E+04</pdfrwt>
<pdfrwt beam="2">  1       -2 0.25941239E+00 0.52396668E+04</pdfrwt>
<totfact> 0.11971240E-02</totfact>
</mgrwt>
</event>
<event>
 8      1 +1.2359593e-08 4.66134800e+03 7.81860800e-03 7.88298300e-02
       -2 -1    0    0    0  501 -0.0000000000e+00 +0.0000000000e+00 +2.4112992199e+03 2.4112992199e+03 2.5500000000e-03 0.0000e+00 -1.0000e+00
        2 -1    0    0  501    0 +0.0000000000e+00 -0.0000000000e+00 -2.2527447241e+03 2.2527447241e+03 2.5500000000e-03 0.0000e+00 1.0000e+00
  1000011  2    1    2    0    0 -2.3558206189e+02 -5.2683702084e+02 -1.1064181951e+02 2.3255645189e+03 2.2501005678e+03 3.7629e+01 0.0000e+00
 -1000011  2    1    2    0    0 +2.3558206189e+02 +5.2683702084e+02 +2.6919631528e+02 2.3384794251e+03 2.2501029334e+03 1.6617e+03 0.0000e+00
       11  1    3    3    0    0 -1.0790084923e-01 -5.3735231860e-02 -6.1250441925e-03 1.2069732910e-01 5.1100000000e-04 0.0000e+00 1.0000e+00
  1000022  1    3    3    0    0 -2.3547416104e+02 -5.2678328561e+02 -1.1063569447e+02 2.3254438216e+03 2.2500000000e+03 0.0000e+00 0.0000e+00
      -11  1    4    4    0    0 -8.8502053329e-02 +2.1422129238e-02 +4.0341922510e-02 9.9595444546e-02 5.1100000000e-04 0.0000e+00 -1.0000e+00
  1000022  1    4    4    0    0 +2.3567056395e+02 +5.2681559871e+02 +2.6915597336e+02 2.3383798297e+03 2.2500000000e+03 0.0000e+00 0.0000e+00
<mgrwt>
<rscale>  0 0.46613481E+04</rscale>
<asrwt>0</asrwt>
<pdfrwt beam="1">  1        2 0.34657611E+00 0.46613481E+04</pdfrwt>
<pdfrwt beam="2">  1       -2 0.37096911E+00 0.46613481E+04</pdfrwt>
<totfact> 0.41278217E-02</totfact>
</mgrwt>
</event>
<event>
 8      1 +1.2359593e-08 5.04559100e+03 7.81860800e-03 7.82151300e-02
       -2 -1    0    0    0  501 -0.0000000000e+00 +0.0000000000e+00 +2.5667540869e+03 2.5667540869e+03 2.5500000000e-03 0.0000e+00 -1.0000e+00
        2 -1    0    0  501    0 +0.0000000000e+00 -0.0000000000e+00 -2.4795900952e+03 2.4795900952e+03 2.5500000000e-03 0.0000e+00 1.0000e+00
  1000011  2    1    2    0    0 +1.6349119506e+02 -1.1137773432e+03 +2.2889167473e+02 2.5263750410e+03 2.2501000218e+03 1.0991e+03 0.0000e+00
 -1000011  2    1    2    0    0 -1.6349119506e+02 +1.1137773432e+03 -1.4172768300e+02 2.5199691410e+03 2.2500951968e+03 1.7727e+03 0.0000e+00
       11  1    3    3    0    0 -8.9120967533e-03 +5.5382766443e-02 +3.7519905706e-02 6.7488372518e-02 5.1100000000e-04 0.0000e+00 1.0000e+00
  1000022  1    3    3    0    0 +1.6350010716e+02 -1.1138327259e+03 +2.2885415482e+02 2.5263075527e+03 2.2500000000e+03 0.0000e+00 0.0000e+00
      -11  1    4    4    0    0 +2.2627571497e-02 +7.7634439157e-02 +7.9464781406e-02 1.1337559566e-01 5.1100000000e-04 0.0000e+00 -1.0000e+00
  1000022  1    4    4    0    0 -1.6351382263e+02 +1.1136997087e+03 -1.4180714778e+02 2.5198557654e+03 2.2500000000e+03 0.0000e+00 0.0000e+00
<mgrwt>
<rscale>  0 0.50455913E+04</rscale>
<asrwt>0</asrwt>
<pdfrwt beam="1">  1        2 0.38147540E+00 0.50455913E+04</pdfrwt>
<pdfrwt beam="2">  1       -2 0.39488524E+00 0.50455913E+04</pdfrwt>
<totfact> 0.20813942E-02</totfact>
</mgrwt>
</event>
<event>
 8      1 +1.2359593e-08 4.81147700e+03 7.81860800e-03 7.85826500e-02
        2 -1    0    0  501    0 +0.0000000000e+00 +0.0000000000e+00 +4.7191369038e+03 4.7191369038e+03 2.5500000000e-03 0.0000e+00 1.0000e+00
       -2 -1    0    0    0  501 -0.0000000000e+00 -0.0000000000e+00 -1.2264059281e+03 1.2264059281e+03 2.5500000000e-03 0.0000e+00 -1.0000e+00
  1000011  2    1    2    0    0 -4.6849164593e+02 +5.8940973275e+02 +1.2555967690e+03 2.6844661106e+03 2.2500992861e+03 1.6309e+03 0.0000e+00
 -1000011  2    1    2    0    0 +4.6849164593e+02 -5.8940973275e+02 +2.2371342067e+03 3.2610767213e+03 2.2501030350e+03 1.0626e+02 0.0000e+00
       11  1    3    3    0    0 +6.4824737833e-02 -3.3085533809e-02 +3.0584136603e-02 7.8946498252e-02 5.1100000000e-04 0.0000e+00 1.0000e+00
  1000022  1    3    3    0    0 -4.6855647067e+02 +5.8944281829e+02 +1.2555661848e+03 2.6843871641e+03 2.2500000000e+03 0.0000e+00 0.0000e+00
      -11  1    4    4    0    0 -8.1913601124e-02 -2.2280304473e-02 +5.5497667063e-02 1.0142239338e-01 5.1100000000e-04 0.0000e+00 -1.0000e+00
  1000022  1    4    4    0    0 +4.6857355953e+02 -5.8938745245e+02 +2.2370787090e+03 3.2609752989e+03 2.2500000000e+03 0.0000e+00 0.0000e+00
<mgrwt>
<rscale>  0 0.48114769E+04</rscale>
<asrwt>0</asrwt>
<pdfrwt beam="1">  1        2 0.72602106E+00 0.48114769E+04</pdfrwt>
<pdfrwt beam="2">  1       -2 0.18867783E+00 0.48114769E+04</pdfrwt>
<totfact> 0.84509569E-03</totfact>
</mgrwt>
</event>
<event>
 8      1 +1.2359593e-08 4.70091400e+03 7.81860800e-03 7.87637700e-02
       -2 -1    0    0    0  501 -0.0000000000e+00 +0.0000000000e+00 +2.1441079519e+03 2.1441079519e+03 2.5500000000e-03 0.0000e+00 -1.0000e+00
        2 -1    0    0  501    0 +0.0000000000e+00 -0.0000000000e+00 -2.5766645681e+03 2.5766645681e+03 2.5500000000e-03 0.0000e+00 1.0000e+00
  1000011  2    1    2    0    0 +3.5727433875e+02 +5.4081410884e+02 -1.1529133442e+01 2.3416252200e+03 2.2501001970e+03 2.8612e+02 0.0000e+00
 -1000011  2    1    2    0    0 -3.5727433875e+02 -5.4081410884e+02 -4.2102748275e+02 2.3791472999e+03 2.2501006378e+03 1.7328e+03 0.0000e+00
       11  1    3    3    0    0 -8.0155484605e-02 -5.0193152324e-03 -2.0914245174e-02 8.2992541217e-02 5.1100000000e-04 0.0000e+00 1.0000e+00
  1000022  1    3    3    0    0 +3.5735449423e+02 +5.4081912816e+02 -1.1508219197e+01 2.3415422275e+03 2.2500000000e+03 0.0000e+00 0.0000e+00
      -11  1    4    4    0    0 -6.2052711382e-02 -7.7533381529e-02 +5.3268380603e-02 1.1269314867e-01 5.1100000000e-04 0.0000e+00 -1.0000e+00
  1000022  1    4    4    0    0 -3.5721228603e+02 -5.4073657546e+02 -4.2108075114e+02 2.3790346068e+03 2.2500000000e+03 0.0000e+00 0.0000e+00
<mgrwt>
<rscale>  0 0.47009135E+04</rscale>
<asrwt>0</asrwt>
<pdfrwt beam="1">  1        2 0.39640993E+00 0.47009135E+04</pdfrwt>
<pdfrwt beam="2">  1       -2 0.32986276E+00 0.47009135E+04</pdfrwt>
<totfact> 0.48700319E-02</totfact>
</mgrwt>
</event>
<event>
 8      1 +1.2359593e-08 5.75985300e+03 7.81860800e-03 7.72091200e-02
       -2 -1    0    0    0  501 -0.0000000000e+00 +0.0000000000e+00 +1.9867109580e+03 1.9867109580e+03 2.5500000000e-03 0.0000e+00 -1.0000e+00
        2 -1    0    0  501    0 +0.0000000000e+00 -0.0000000000e+00 -4.1747267310e+03 4.1747267310e+03 2.5500000000e-03 0.0000e+00 1.0000e+00
  1000011  2    1    2    0    0 +1.2331737103e+03 +7.8472061804e+01 +3.0244206108e+02 2.5848209482e+03 2.2501006354e+03 4.9742e+03 0.0000e+00
 -1000011  2    1    2    0    0 -1.2331737103e+03 -7.8472061804e+01 -2.4904578340e+03 3.5766167408e+03 2.2500959587e+03 4.7501e+01 0.0000e+00
       11  1    3    3    0    0 +8.3586109953e-02 +3.6929561524e-02 -7.7122279245e-02 1.1957648981e-01 5.1100000000e-04 0.0000e+00 1.0000e+00
  1000022  1    3    3    0    0 +1.2330901242e+03 +7.8435132242e+01 +3.0251918336e+02 2.5847013717e+03 2.2500000000e+03 0.0000e+00 0.0000e+00
      -11  1    4    4    0    0 -1.0440274502e-01 +7.9122224399e-02 -1.4867255608e-01 1.9815158142e-01 5.1100000000e-04 0.0000e+00 -1.0000e+00
  1000022  1    4    4    0    0 -1.2330693076e+03 -7.8551184028e+01 -2.4903091615e+03 3.5764185893e+03 2.2500000000e+03 0.0000e+00 0.0000e+00
<mgrwt>
<rscale>  0 0.57598525E+04</rscale>
<asrwt>0</asrwt>
<pdfrwt beam="1">  1        2 0.64226565E+00 0.57598525E+04</pdfrwt>
<pdfrwt beam="2">  1       -2 0.30564784E+00 0.57598525E+04</pdfrwt>
<totfact> 0.48863020E-03</totfact>
</mgrwt>
</event>
<event>
 8      1 +1.2359593e-08 4.64527100e+03 7.81860800e-03 7.88568600e-02
       -2 -1    0    0    0  501 -0.0000000000e+00 +0.0000000000e+00 +4.2979935944e+03 4.2979935944e+03 2.5500000000e-03 0.0000e+00 -1.0000e+00
        2 -1    0    0  501    0 +0.0000000000e+00 -0.0000000000e+00 -1.2551519378e+03 1.2551519378e+03 2.5500000000e-03 0.0000e+00 1.0000e+00
  1000011  2    1    2    0    0 -4.2775326591e+02 -3.5164779128e+02 +1.3324541388e+03 2.6730399813e+03 2.2501288150e+03 3.7691e+01 0.0000e+00
 -1000011  2    1    2    0    0 +4.2775326591e+02 +3.5164779128e+02 +1.7103875177e+03 2.8801055509e+03 2.2501007750e+03 8.6673e+02 0.0000e+00
       11  1    3    3    0    0 -2.9294607844e-02 +4.1484261003e-02 -5.9320880271e-02 7.8091904130e-02 5.1100000000e-04 0.0000e+00 1.0000e+00
  1000022  1    3    3    0    0 -4.2772397131e+02 -3.5168927554e+02 +1.3325134597e+03 2.6729618894e+03 2.2500000000e+03 0.0000e+00 0.0000e+00
      -11  1    4    4    0    0 +8.2781802756e-02 -3.2232570987e-02 +3.0312306138e-03 8.8888777464e-02 5.1100000000e-04 0.0000e+00 -1.0000e+00
  1000022  1    4    4    0    0 +4.2767048411e+02 +3.5168002385e+02 +1.7103844865e+03 2.8800166621e+03 2.2500000000e+03 0.0000e+00 0.0000e+00
<mgrwt>
<rscale>  0 0.46452707E+04</rscale>
<asrwt>0</asrwt>
<pdfrwt beam="1">  1        2 0.19310030E+00 0.46452707E+04</pdfrwt>
<pdfrwt beam="2">  1       -2 0.66122978E+00 0.46452707E+04</pdfrwt>
<totfact> 0.40791423E-03</totfact>
</mgrwt>
</event>
<event>
 8      1 +1.2359593e-08 4.61523500e+03 7.81860800e-03 7.89076700e-02
       -2 -1    0    0    0  501 -0.0000000000e+00 +0.0000000000e+00 +2.5990595160e+03 2.5990595160e+03 2.5500000000e-03 0.0000e+00 -1.0000e+00
        2 -1    0    0  501    0 +0.0000000000e+00 -0.0000000000e+00 -2.0488557957e+03 2.0488557957e+03 2.5500000000e-03 0.0000e+00 1.0000e+00
  1000011  2    1    2    0    0 +5.9485099311e+01 -1.4310097984e+02 +7.6649196760e+02 2.3821138817e+03 2.2500978293e+03 1.6136e+03 0.0000e+00
 -1000011  2    1    2    0    0 -5.9485099311e+01 +1.4310097984e+02 -2.1628824729e+02 2.2658014301e+03 2.2501242515e+03 2.3185e+03 0.0000e+00
       11  1    3    3    0    0 +1.3937010602e-02 +4.4684274678e-02 -5.5137361982e-02 7.2327825851e-02 5.1100000000e-04 0.0000e+00 1.0000e+00
  1000022  1    3    3    0    0 +5.9471162301e+01 -1.4314566412e+02 +7.6654710496e+02 2.3820415539e+03 2.2500000000e+03 0.0000e+00 0.0000e+00
      -11  1    4    4    0    0 -4.2298211652e-03 -6.7858661040e-02 +8.7555994331e-02 1.1085577179e-01 5.1100000000e-04 0.0000e+00 -1.0000e+00
  1000022  1    4    4    0    0 -5.9480869490e+01 +1.4316883850e+02 -2.1637580328e+02 2.2656905743e+03 2.2500000000e+03 0.0000e+00 0.0000e+00
<mgrwt>
<rscale>  0 0.46152348E+04</rscale>
<asrwt>0</asrwt>
<pdfrwt beam="1">  1        2 0.31520858E+00 0.46152348E+04</pdfrwt>
<pdfrwt beam="2">  1       -2 0.39985531E+00 0.46152348E+04</pdfrwt>
<totfact> 0.35051314E-02</totfact>
</mgrwt>
</event>
<event>
 8      1 +1.2359593e-08 6.19143200e+03 7.81860800e-03 7.66710900e-02
       -2 -1    0    0    0  501 -0.0000000000e+00 +0.0000000000e+00 +3.2774318869e+03 3.2774318869e+03 2.5500000000e-03 0.0000e+00 -1.0000e+00
        2 -1    0    0  501    0 +0.0000000000e+00 -0.0000000000e+00 -2.9240754810e+03 2.9240754810e+03 2.5500000000e-03 0.0000e+00 1.0000e+00
  1000011  2    1    2    0    0 -2.1025781942e+03 +1.6241294412e+02 -9.4489458375e+01 3.0853030052e+03 2.2501007419e+03 2.5195e+01 0.0000e+00
 -1000011  2    1    2    0    0 +2.1025781942e+03 -1.6241294412e+02 +4.4784586426e+02 3.1162043627e+03 2.2501001500e+03 5.0835e+02 0.0000e+00
       11  1    3    3    0    0 -1.9805574977e-01 -3.1901332788e-02 -5.6822582625e-02 2.0850141937e-01 5.1100000000e-04 0.0000e+00 1.0000e+00
  1000022  1    3    3    0    0 -2.1023801384e+03 +1.6244484545e+02 -9.4432635793e+01 3.0850945037e+03 2.2500000000e+03 0.0000e+00 0.0000e+00
      -11  1    4    4    0    0 +1.1485073401e-01 -1.0293610982e-02 +1.2200638758e-01 1.6787635057e-01 5.1100000000e-04 0.0000e+00 -1.0000e+00
  1000022  1    4    4    0    0 +2.1024633435e+03 -1.6240265051e+02 +4.4772385787e+02 3.1160364864e+03 2.2500000000e+03 0.0000e+00 0.0000e+00
<mgrwt>
<rscale>  0 0.61914322E+04</rscale>
<asrwt>0</asrwt>
<pdfrwt beam="1">  1        2 0.44985777E+00 0.61914322E+04</pdfrwt>
<pdfrwt beam="2">  1       -2 0.50422029E+00 0.61914322E+04</pdfrwt>
<totfact> 0.20258975E-03</totfact>
</mgrwt>
</event>
<event>
 8      1 +1.2359593e-08 5.44733700e+03 7.81860800e-03 7.76297700e-02
        2 -1    0    0  501    0 +0.0000000000e+00 +0.0000000000e+00 +4.4076184113e+03 4.4076184113e+03 2.5500000000e-03 0.0000e+00 1.0000e+00
       -2 -1    0    0    0  501 -0.0000000000e+00 -0.0000000000e+00 -1.6830787733e+03 1.6830787733e+03 2.5500000000e-03 0.0000e+00 -1.0000e+00
  1000011  2    1    2    0    0 +5.8152523732e+02 +1.3712940368e+03 +1.7758263627e+03 3.2303439557e+03 2.2500986345e+03 3.4178e+02 0.0000e+00
 -1000011  2    1    2    0    0 -5.8152523732e+02 -1.3712940368e+03 +9.4871327527e+02 2.8603532288e+03 2.2500988374e+03 4.4711e+00 0.0000e+00
       11  1    3    3    0    0 +1.2524517943e-01 +9.7994955967e-02 +1.0277858119e-01 1.8934905300e-01 5.1100000000e-04 0.0000e+00 1.0000e+00
  1000022  1    3    3    0    0 +5.8139999214e+02 +1.3711960418e+03 +1.7757235841e+03 3.2301546067e+03 2.2500000000e+03 0.0000e+00 0.0000e+00
      -11  1    4    4    0    0 -7.6267717781e-02 -4.5281018568e-02 -4.5732879628e-02 9.9794251287e-02 5.1100000000e-04 0.0000e+00 -1.0000e+00
  1000022  1    4    4    0    0 -5.8144896961e+02 -1.3712487558e+03 +9.4875900815e+02 2.8602534346e+03 2.2500000000e+03 0.0000e+00 0.0000e+00
<mgrwt>
<rscale>  0 0.54473366E+04</rscale>
<asrwt>0</asrwt>
<pdfrwt beam="1">  1        2 0.67809515E+00 0.54473366E+04</pdfrwt>
<pdfrwt beam="2">  1       -2 0.25893519E+00 0.54473366E+04</pdfrwt>
<totfact> 0.59520181E-03</totfact>
</mgrwt>
</event>
<event>
 8      1 +1.2359593e-08 5.01475700e+03 7.81860800e-03 7.82623500e-02
       -2 -1    0    0    0  501 -0.0000000000e+00 +0.0000000000e+00 +2.5333054621e+03 2.5333054621e+03 2.5500000000e-03 0.0000e+00 -1.0000e+00
        2 -1    0    0  501    0 +0.0000000000e+00 -0.0000000000e+00 -2.4817169846e+03 2.4817169846e+03 2.5500000000e-03 0.0000e+00 1.0000e+00
  1000011  2    1    2    0    0 -2.2452454518e+02 -8.4469099546e+02 +7.0409977236e+02 2.5144822639e+03 2.2501000904e+03 5.2408e+02 0.0000e+00
 -1000011  2    1    2    0    0 +2.2452454518e+02 +8.4469099546e+02 -6.5251129483e+02 2.5005401828e+03 2.2501146785e+03 1.4297e+03 0.0000e+00
       11  1    3    3    0    0 -9.1583728175e-02 +5.1780597628e-03 -1.2315132975e-02 9.2554387900e-02 5.1100000000e-04 0.0000e+00 1.0000e+00
  1000022  1    3    3    0    0 -2.2443296145e+02 -8.4469617352e+02 +7.0411208749e+02 2.5143897096e+03 2.2500000000e+03 0.0000e+00 0.0000e+00
      -11  1    4    4    0    0 +3.8579841674e-02 +1.6181947652e-01 -2.8762774259e-02 1.6882388722e-01 5.1100000000e-04 0.0000e+00 -1.0000e+00
  1000022  1    4    4    0    0 +2.2448596534e+02 +8.4452917599e+02 -6.5248253205e+02 2.5003713589e+03 2.2500000000e+03 0.0000e+00 0.0000e+00
<mgrwt>
<rscale>  0 0.50147571E+04</rscale>
<asrwt>0</asrwt>
<pdfrwt beam="1">  1        2 0.38180261E+00 0.50147571E+04</pdfrwt>
<pdfrwt beam="2">  1       -2 0.38973930E+00 0.50147571E+04</pdfrwt>
<totfact> 0.22471213E-02</totfact>
</mgrwt>
</event>
<event>
 8      1 +1.2359593e-08 5.03242700e+03 7.81860800e-03 7.82352400e-02
        2 -1    0    0  501    0 +0.0000000000e+00 +0.0000000000e+00 +3.4199219038e+03 3.4199219038e+03 2.5500000000e-03 0.0000e+00 1.0000e+00
       -2 -1    0    0    0  501 -0.0000000000e+00 -0.0000000000e+00 -1.8513083365e+03 1.8513083365e+03 2.5500000000e-03 0.0000e+00 -1.0000e+00
  1000011  2    1    2    0    0 +2.8268083358e+02 +1.0648179609e+03 +1.0291383995e+03 2.7084722378e+03 2.2501000586e+03 2.3905e+02 0.0000e+00
 -1000011  2    1    2    0    0 -2.8268083358e+02 -1.0648179609e+03 +5.3947516782e+02 2.5627580025e+03 2.2500998598e+03 1.5665e+03 0.0000e+00
       11  1    3    3    0    0 -3.9502867976e-02 +1.3440311707e-01 +8.6943082181e-02 1.6487581678e-01 5.1100000000e-04 0.0000e+00 1.0000e+00
  1000022  1    3    3    0    0 +2.8272033645e+02 +1.0646835578e+03 +1.0290514564e+03 2.7083073620e+03 2.2500000000e+03 0.0000e+00 0.0000e+00
      -11  1    4    4    0    0 -4.5936942506e-02 -1.4180513355e-01 -1.0574460348e-02 1.4943553351e-01 5.1100000000e-04 0.0000e+00 -1.0000e+00
  1000022  1    4    4    0    0 -2.8263489664e+02 -1.0646761558e+03 +5.3948574228e+02 2.5626085670e+03 2.2500000000e+03 0.0000e+00 0.0000e+00
<mgrwt>
<rscale>  0 0.50324268E+04</rscale>
<asrwt>0</asrwt>
<pdfrwt beam="1">  1        2 0.52614182E+00 0.50324268E+04</pdfrwt>
<pdfrwt beam="2">  1       -2 0.28481667E+00 0.50324268E+04</pdfrwt>
<totfact> 0.26360265E-02</totfact>
</mgrwt>
</event>
<event>
 8      1 +1.2359593e-08 4.96588900e+03 7.81860800e-03 7.83379100e-02
       -2 -1    0    0    0  501 -0.0000000000e+00 +0.0000000000e+00 +2.1544333557e+03 2.1544333557e+03 2.5500000000e-03 0.0000e+00 -1.0000e+00
        2 -1    0    0  501    0 +0.0000000000e+00 -0.0000000000e+00 -2.8615473151e+03 2.8615473151e+03 2.5500000000e-03 0.0000e+00 1.0000e+00
  1000011  2    1    2    0    0 +9.9331537322e+01 -5.8317002323e+02 -1.2295282669e+03 2.6314713354e+03 2.2500994644e+03 3.1910e+02 0.0000e+00
 -1000011  2    1    2    0    0 -9.9331537322e+01 +5.8317002323e+02 +5.2241430743e+02 2.3845093354e+03 2.2501142263e+03 6.4905e+02 0.0000e+00
       11  1    3    3    0    0 -1.1094513709e-02 +1.5061347640e-02 -1.5040754144e-01 1.5156721873e-01 5.1100000000e-04 0.0000e+00 1.0000e+00
  1000022  1    3    3    0    0 +9.9342631836e+01 -5.8318508458e+02 -1.2293778593e+03 2.6313197682e+03 2.2500000000e+03 0.0000e+00 0.0000e+00
      -11  1    4    4    0    0 -5.4866219835e-02 -3.8358458849e-02 +1.0366234199e-01 1.2340103510e-01 5.1100000000e-04 0.0000e+00 -1.0000e+00
  1000022  1    4    4    0    0 -9.9276671102e+01 +5.8320838169e+02 +5.2231064509e+02 2.3843859343e+03 2.2500000000e+03 0.0000e+00 0.0000e+00
<mgrwt>
<rscale>  0 0.49658888E+04</rscale>
<asrwt>0</asrwt>
<pdfrwt beam="1">  1        2 0.44023805E+00 0.49658888E+04</pdfrwt>
<pdfrwt beam="2">  1       -2 0.33145129E+00 0.49658888E+04</pdfrwt>
<totfact> 0.31476445E-02</totfact>
</mgrwt>
</event>
<event>
 8      1 +1.2359593e-08 4.67717300e+03 7.81860800e-03 7.88033200e-02
       -2 -1    0    0    0  501 -0.0000000000e+00 +0.0000000000e+00 +1.8252653156e+03 1.8252653156e+03 2.5500000000e-03 0.0000e+00 -1.0000e+00
        2 -1    0    0  501    0 +0.0000000000e+00 -0.0000000000e+00 -2.9962696453e+03 2.9962696453e+03 2.5500000000e-03 0.0000e+00 1.0000e+00
  1000011  2    1    2    0    0 -5.5770427114e+01 +5.6268598167e+02 -8.8838138598e+02 2.4843250009e+03 2.2500940800e+03 1.6849e+02 0.0000e+00
 -1000011  2    1    2    0    0 +5.5770427114e+01 -5.6268598167e+02 -2.8262294366e+02 2.3372099600e+03 2.2500997343e+03 7.8997e+02 0.0000e+00
       11  1    3    3    0    0 +4.7970147421e-02 +9.8923297454e-02 -7.6286092471e-02 1.3381622578e-01 5.1100000000e-04 0.0000e+00 1.0000e+00
  1000022  1    3    3    0    0 -5.5818397262e+01 +5.6258705837e+02 -8.8830509989e+02 2.4841911847e+03 2.2500000000e+03 0.0000e+00 0.0000e+00
      -11  1    4    4    0    0 +1.0208021525e-01 -2.3672235210e-02 -1.8031907996e-02 1.0633040834e-01 5.1100000000e-04 0.0000e+00 -1.0000e+00
  1000022  1    4    4    0    0 +5.5668346899e+01 -5.6266230943e+02 -2.8260491176e+02 2.3371036296e+03 2.2500000000e+03 0.0000e+00 0.0000e+00
<mgrwt>
<rscale>  0 0.46771731E+04</rscale>
<asrwt>0</asrwt>
<pdfrwt beam="1">  1        2 0.46096456E+00 0.46771731E+04</pdfrwt>
<pdfrwt beam="2">  1       -2 0.28081005E+00 0.46771731E+04</pdfrwt>
<totfact> 0.54414531E-02</totfact>
</mgrwt>
</event>
<event>
 8      1 +1.2359593e-08 4.59856000e+03 7.81860800e-03 7.89360500e-02
       -1 -1    0    0    0  501 -0.0000000000e+00 +0.0000000000e+00 +2.5229229594e+03 2.5229229594e+03 5.0400000000e-03 0.0000e+00 -1.0000e+00
        1 -1    0    0  501    0 +0.0000000000e+00 -0.0000000000e+00 -2.0954620532e+03 2.0954620532e+03 5.0400000000e-03 0.0000e+00 1.0000e+00
  1000011  2    1    2    0    0 -2.7045066708e+02 +8.7886315421e+01 -1.6588187644e+02 2.2740563350e+03 2.2500995200e+03 2.0684e+03 0.0000e+00
 -1000011  2    1    2    0    0 +2.7045066708e+02 -8.7886315421e+01 +5.9334278268e+02 2.3443286776e+03 2.2501008251e+03 2.1334e+03 0.0000e+00
       11  1    3    3    0    0 +1.7120951337e-03 +5.1750257601e-02 -9.3755917145e-02 1.0710486930e-01 5.1100000000e-04 0.0000e+00 1.0000e+00
  1000022  1    3    3    0    0 -2.7045237917e+02 +8.7834565163e+01 -1.6578812052e+02 2.2739492301e+03 2.2500000000e+03 0.0000e+00 0.0000e+00
      -11  1    4    4    0    0 +7.8836025241e-02 -6.7761837452e-03 +1.0721876775e-01 1.3325599644e-01 5.1100000000e-04 0.0000e+00 -1.0000e+00
  1000022  1    4    4    0    0 +2.7037183105e+02 -8.7879539237e+01 +5.9323556391e+02 2.3441954216e+03 2.2500000000e+03 0.0000e+00 0.0000e+00
<mgrwt>
<rscale>  0 0.45985604E+04</rscale>
<asrwt>0</asrwt>
<pdfrwt beam="1">  1        1 0.32237878E+00 0.45985604E+04</pdfrwt>
<pdfrwt beam="2">  1       -1 0.38814199E+00 0.45985604E+04</pdfrwt>
<totfact> 0.16485116E-02</totfact>
</mgrwt>
</event>
<event>
 8      1 +1.2359593e-08 4.79090200e+03 7.81860800e-03 7.86159800e-02
        2 -1    0    0  501    0 +0.0000000000e+00 +0.0000000000e+00 +2.4399505039e+03 2.4399505039e+03 2.5500000000e-03 0.0000e+00 1.0000e+00
       -2 -1    0    0    0  501 -0.0000000000e+00 -0.0000000000e+00 -2.3517626672e+03 2.3517626672e+03 2.5500000000e-03 0.0000e+00 -1.0000e+00
  1000011  2    1    2    0    0 -1.3293843429e+02 +8.0570716342e+02 -4.7446550727e+01 2.3941727740e+03 2.2501056500e+03 1.7628e+02 0.0000e+00
 -1000011  2    1    2    0    0 +1.3293843429e+02 -8.0570716342e+02 +1.3563438742e+02 2.3975403970e+03 2.2501036882e+03 1.5849e+03 0.0000e+00
       11  1    3    3    0    0 -6.8305480278e-02 +3.2365865715e-02 +8.3091629608e-02 1.1232839253e-01 5.1100000000e-04 0.0000e+00 1.0000e+00
  1000022  1    3    3    0    0 -1.3287012881e+02 +8.0567479755e+02 -4.7529642357e+01 2.3940604457e+03 2.2500000000e+03 0.0000e+00 0.0000e+00
      -11  1    4    4    0    0 +7.7045794704e-02 -8.7005250476e-02 -5.3192482585e-02 1.2781106857e-01 5.1100000000e-04 0.0000e+00 -1.0000e+00
  1000022  1    4    4    0    0 +1.3286138850e+02 -8.0562015817e+02 +1.3568757990e+02 2.3974125859e+03 2.2500000000e+03 0.0000e+00 0.0000e+00
<mgrwt>
<rscale>  0 0.47909016E+04</rscale>
<asrwt>0</asrwt>
<pdfrwt beam="1">  1        2 0.37537700E+00 0.47909016E+04</pdfrwt>
<pdfrwt beam="2">  1       -2 0.36180964E+00 0.47909016E+04</pdfrwt>
<totfact> 0.36555826E-02</totfact>
</mgrwt>
</event>
<event>
 8      1 +1.2359593e-08 4.58455100e+03 7.81860800e-03 7.89599900e-02
       -2 -1    0    0    0  501 -0.0000000000e+00 +0.0000000000e+00 +1.5353321527e+03 1.5353321527e+03 2.5500000000e-03 0.0000e+00 -1.0000e+00
        2 -1    0    0  501    0 +0.0000000000e+00 -0.0000000000e+00 -3.4224045288e+03 3.4224045288e+03 2.5500000000e-03 0.0000e+00 1.0000e+00
  1000011  2    1    2    0    0 -3.0748009951e+02 -3.1147655646e+02 -9.4900137414e+02 2.4809491016e+03 2.2500984822e+03 6.8056e+01 0.0000e+00
 -1000011  2    1    2    0    0 +3.0748009951e+02 +3.1147655646e+02 -9.3807100202e+02 2.4767875799e+03 2.2500972989e+03 1.2636e+03 0.0000e+00
       11  1    3    3    0    0 -1.5655004657e-02 +8.4413056827e-02 -1.9027027193e-02 8.7937088570e-02 5.1100000000e-04 0.0000e+00 1.0000e+00
  1000022  1    3    3    0    0 -3.0746444451e+02 -3.1156096951e+02 -9.4898234712e+02 2.4808611645e+03 2.2500000000e+03 0.0000e+00 0.0000e+00
      -11  1    4    4    0    0 +8.4080428809e-02 +7.1246642659e-02 -6.9668156279e-03 1.1042825604e-01 5.1100000000e-04 0.0000e+00 -1.0000e+00
  1000022  1    4    4    0    0 +3.0739601908e+02 +3.1140530981e+02 -9.3806403521e+02 2.4766771517e+03 2.2500000000e+03 0.0000e+00 0.0000e+00
<mgrwt>
<rscale>  0 0.45845513E+04</rscale>
<asrwt>0</asrwt>
<pdfrwt beam="1">  1        2 0.52652377E+00 0.45845513E+04</pdfrwt>
<pdfrwt beam="2">  1       -2 0.23620495E+00 0.45845513E+04</pdfrwt>
<totfact> 0.54072464E-02</totfact>
</mgrwt>
</event>
<event>
 8      1 +1.2359593e-08 4.83082600e+03 7.81860800e-03 7.85514700e-02
       -2 -1    0    0    0  501 -0.0000000000e+00 +0.0000000000e+00 +2.8043990982e+03 2.8043990982e+03 2.5500000000e-03 0.0000e+00 -1.0000e+00
        2 -1    0    0  501    0 +0.0000000000e+00 -0.0000000000e+00 -2.0803812972e+03 2.0803812972e+03 2.5500000000e-03 0.0000e+00 1.0000e+00
  1000011  2    1    2    0    0 -4.9891566710e+02 +6.6575685061e+02 +7.7555212457e+01 2.4002319129e+03 2.2500998639e+03 1.1060e+03 0.0000e+00
 -1000011  2    1    2    0    0 +4.9891566710e+02 -6.6575685061e+02 +6.4646258847e+02 2.4845484825e+03 2.2500929440e+03 4.3730e+02 0.0000e+00
       11  1    3    3    0    0 +2.3397379014e-03 -2.8339355250e-03 -8.9378149681e-02 8.9455127744e-02 5.1100000000e-04 0.0000e+00 1.0000e+00
  1000022  1    3    3    0    0 -4.9891800684e+02 +6.6575968454e+02 +7.7644590606e+01 2.4001424578e+03 2.2500000000e+03 0.0000e+00 0.0000e+00
      -11  1    4    4    0    0 +1.0189146397e-01 -1.5055028423e-02 -1.6645196351e-02 1.0433526639e-01 5.1100000000e-04 0.0000e+00 -1.0000e+00
  1000022  1    4    4    0    0 +4.9881377564e+02 -6.6574179558e+02 +6.4647923367e+02 2.4844441472e+03 2.2500000000e+03 0.0000e+00 0.0000e+00
<mgrwt>
<rscale>  0 0.48308258E+04</rscale>
<asrwt>0</asrwt>
<pdfrwt beam="1">  1        2 0.32005866E+00 0.48308258E+04</pdfrwt>
<pdfrwt beam="2">  1       -2 0.43144601E+00 0.48308258E+04</pdfrwt>
<totfact> 0.20508364E-02</totfact>
</mgrwt>
</event>
<event>
 8      1 +1.2359593e-08 5.11830300e+03 7.81860800e-03 7.81051300e-02
       -2 -1    0    0    0  501 -0.0000000000e+00 +0.0000000000e+00 +2.9565918029e+03 2.9565918029e+03 2.5500000000e-03 0.0000e+00 -1.0000e+00
        2 -1    0    0  501    0 +0.0000000000e+00 -0.0000000000e+00 -2.2151373780e+03 2.2151373780e+03 2.5500000000e-03 0.0000e+00 1.0000e+00
  1000011  2    1    2    0    0 +8.6135243355e+02 +5.9413304239e+02 +1.0028614003e+03 2.6764913528e+03 2.2501006392e+03 3.9823e+02 0.0000e+00
 -1000011  2    1    2    0    0 -8.6135243355e+02 -5.9413304239e+02 -2.6140697541e+02 2.4952378280e+03 2.2501013588e+03 3.4721e+02 0.0000e+00
       11  1    3    3    0    0 +1.6921053947e-02 +1.1631118329e-01 +4.7015363131e-03 1.1763068748e-01 5.1100000000e-04 0.0000e+00 1.0000e+00
  1000022  1    3    3    0    0 +8.6133551250e+02 +5.9401673120e+02 +1.0028566988e+03 2.6763737221e+03 2.2500000000e+03 0.0000e+00 0.0000e+00
      -11  1    4    4    0    0 -9.6439856395e-02 -1.0451868269e-01 +3.3379642251e-02 1.4607964467e-01 5.1100000000e-04 0.0000e+00 -1.0000e+00
  1000022  1    4    4    0    0 -8.6125599370e+02 -5.9402852370e+02 -2.6144035505e+02 2.4950917484e+03 2.2500000000e+03 0.0000e+00 0.0000e+00
<mgrwt>
<rscale>  0 0.51183032E+04</rscale>
<asrwt>0</asrwt>
<pdfrwt beam="1">  1        2 0.34079037E+00 0.51183032E+04</pdfrwt>
<pdfrwt beam="2">  1       -2 0.45486027E+00 0.51183032E+04</pdfrwt>
<totfact> 0.11811945E-02</totfact>
</mgrwt>
</event>
<event>
 8      1 +1.2359593e-08 4.82454500e+03 7.81860800e-03 7.85615800e-02
        2 -1    0    0  501    0 +0.0000000000e+00 +0.0000000000e+00 +2.2589419146e+03 2.2589419146e+03 2.5500000000e-03 0.0000e+00 1.0000e+00
       -2 -1    0    0    0  501 -0.0000000000e+00 -0.0000000000e+00 -2.5760110579e+03 2.5760110579e+03 2.5500000000e-03 0.0000e+00 -1.0000e+00
  1000011  2    1    2    0    0 +3.7280033577e+01 +2.5492051240e+02 +6.7376459592e+02 2.3628942235e+03 2.2500969117e+03 3.1971e+02 0.0000e+00
 -1000011  2    1    2    0    0 -3.7280033577e+01 -2.5492051240e+02 -9.9083373915e+02 2.4720587491e+03 2.2500997070e+03 6.3722e+02 0.0000e+00
       11  1    3    3    0    0 +4.0186614968e-02 -3.1239701387e-02 +1.0952731846e-01 1.2077821412e-01 5.1100000000e-04 0.0000e+00 1.0000e+00
  1000022  1    3    3    0    0 +3.7239846962e+01 +2.5495175210e+02 +6.7365506860e+02 2.3627734452e+03 2.2500000000e+03 0.0000e+00 0.0000e+00
      -11  1    4    4    0    0 +5.8479797120e-02 -5.7535268336e-03 -1.2981368658e-01 1.4249506624e-01 5.1100000000e-04 0.0000e+00 -1.0000e+00
  1000022  1    4    4    0    0 -3.7338513375e+01 -2.5491475887e+02 -9.9070392546e+02 2.4719162540e+03 2.2500000000e+03 0.0000e+00 0.0000e+00
<mgrwt>
<rscale>  0 0.48245453E+04</rscale>
<asrwt>0</asrwt>
<pdfrwt beam="1">  1        2 0.34752952E+00 0.48245453E+04</pdfrwt>
<pdfrwt beam="2">  1       -2 0.39630939E+00 0.48245453E+04</pdfrwt>
<totfact> 0.27718217E-02</totfact>
</mgrwt>
</event>
<event>
 8      1 +1.2359593e-08 4.89306800e+03 7.81860800e-03 7.84521800e-02
        2 -1    0    0  501    0 +0.0000000000e+00 +0.0000000000e+00 +5.7683647386e+03 5.7683647386e+03 2.5500000000e-03 0.0000e+00 1.0000e+00
       -2 -1    0    0    0  501 -0.0000000000e+00 -0.0000000000e+00 -1.0376472252e+03 1.0376472252e+03 2.5500000000e-03 0.0000e+00 -1.0000e+00
  1000011  2    1    2    0    0 -4.2269379198e+02 +8.0749191498e+02 +2.7869131709e+03 3.6960209281e+03 2.2501049852e+03 3.6047e+03 0.0000e+00
 -1000011  2    1    2    0    0 +4.2269379198e+02 -8.0749191498e+02 +1.9438043425e+03 3.1099910356e+03 2.2501012611e+03 3.8723e+02 0.0000e+00
       11  1    3    3    0    0 -6.1159019515e-03 +7.7968405724e-02 +2.8978303383e-01 3.0015153577e-01 5.1100000000e-04 0.0000e+00 1.0000e+00
  1000022  1    3    3    0    0 -4.2268767608e+02 +8.0741394658e+02 +2.7866233878e+03 3.6957207766e+03 2.2500000000e+03 0.0000e+00 0.0000e+00
      -11  1    4    4    0    0 +5.0543028878e-02 -8.1338761913e-03 -3.3604467899e-02 6.1239518151e-02 5.1100000000e-04 0.0000e+00 -1.0000e+00
  1000022  1    4    4    0    0 +4.2264324896e+02 -8.0748378110e+02 +1.9438379470e+03 3.1099297961e+03 2.2500000000e+03 0.0000e+00 0.0000e+00
<mgrwt>
<rscale>  0 0.48930676E+04</rscale>
<asrwt>0</asrwt>
<pdfrwt beam="1">  1        2 0.88744070E+00 0.48930676E+04</pdfrwt>
<pdfrwt beam="2">  1       -2 0.15963804E+00 0.48930676E+04</pdfrwt>
<totfact> 0.28793844E-04</totfact>
</mgrwt>
</event>
<event>
 8      1 +1.2359593e-08 4.98048400e+03 7.81860800e-03 7.83152500e-02
        2 -1    0    0  501    0 +0.0000000000e+00 +0.0000000000e+00 +3.3794977905e+03 3.3794977905e+03 2.5500000000e-03 0.0000e+00 1.0000e+00
       -2 -1    0    0    0  501 -0.0000000000e+00 -0.0000000000e+00 -1.8349784988e+03 1.8349784988e+03 2.5500000000e-03 0.0000e+00 -1.0000e+00
  1000011  2    1    2    0    0 +3.3892726718e+02 -4.2916788287e+02 -1.8691561819e+02 2.3231307522e+03 2.2500982822e+03 3.0124e+03 0.0000e+00
 -1000011  2    1    2    0    0 -3.3892726718e+02 +4.2916788287e+02 +1.7314349098e+03 2.8913455371e+03 2.2501011985e+03 9.8768e+01 0.0000e+00
       11  1    3    3    0    0 +1.8522983511e-02 -4.5238916436e-02 +8.6428084886e-02 9.9296200203e-02 5.1100000000e-04 0.0000e+00 1.0000e+00
  1000022  1    3    3    0    0 +3.3890874420e+02 -4.2912264395e+02 -1.8700204628e+02 2.3230314560e+03 2.2500000000e+03 0.0000e+00 0.0000e+00
      -11  1    4    4    0    0 -6.9037888786e-06 -2.1617392786e-03 -4.9024824147e-02 4.9075118441e-02 5.1100000000e-04 0.0000e+00 -1.0000e+00
  1000022  1    4    4    0    0 -3.3892726027e+02 +4.2917004461e+02 +1.7314839346e+03 2.8912964619e+03 2.2500000000e+03 0.0000e+00 0.0000e+00
<mgrwt>
<rscale>  0 0.49804842E+04</rscale>
<asrwt>0</asrwt>
<pdfrwt beam="1">  1        2 0.51992273E+00 0.49804842E+04</pdfrwt>
<pdfrwt beam="2">  1       -2 0.28230439E+00 0.49804842E+04</pdfrwt>
<totfact> 0.29225705E-02</totfact>
</mgrwt>
</event>
<event>
 8      1 +1.2359593e-08 4.65894100e+03 7.81860800e-03 7.88338700e-02
       -1 -1    0    0    0  501 -0.0000000000e+00 +0.0000000000e+00 +2.4104834218e+03 2.4104834218e+03 5.0400000000e-03 0.0000e+00 -1.0000e+00
        1 -1    0    0  501    0 +0.0000000000e+00 -0.0000000000e+00 -2.2511805604e+03 2.2511805604e+03 5.0400000000e-03 0.0000e+00 1.0000e+00
  1000011  2    1    2    0    0 -4.4358551824e+02 +1.8624229170e+02 +4.4321165993e+02 2.3432541326e+03 2.2500997870e+03 1.6533e+02 0.0000e+00
 -1000011  2    1    2    0    0 +4.4358551824e+02 -1.8624229170e+02 -2.8390879846e+02 2.3184098496e+03 2.2501034913e+03 4.6660e+02 0.0000e+00
       11  1    3    3    0    0 -3.5015339547e-02 +3.9046289702e-02 -7.4845123140e-02 9.1393324702e-02 5.1100000000e-04 0.0000e+00 1.0000e+00
  1000022  1    3    3    0    0 -4.4355050290e+02 +1.8620324541e+02 +4.4328650505e+02 2.3431627393e+03 2.2500000000e+03 0.0000e+00 0.0000e+00
      -11  1    4    4    0    0 -1.8154373273e-02 +7.9110263209e-02 -5.3380750921e-02 9.7148239194e-02 5.1100000000e-04 0.0000e+00 -1.0000e+00
  1000022  1    4    4    0    0 +4.4360367262e+02 -1.8632140196e+02 -2.8385541770e+02 2.3183127014e+03 2.2500000000e+03 0.0000e+00 0.0000e+00
<mgrwt>
<rscale>  0 0.46589413E+04</rscale>
<asrwt>0</asrwt>
<pdfrwt beam="1">  1        1 0.34633547E+00 0.46589413E+04</pdfrwt>
<pdfrwt beam="2">  1       -1 0.37084360E+00 0.46589413E+04</pdfrwt>
<totfact> 0.16815873E-02</totfact>
</mgrwt>
</event>
<event>
 8      1 +1.2359593e-08 5.22566400e+03 7.81860800e-03 7.79460900e-02
        1 -1    0    0  501    0 +0.0000000000e+00 +0.0000000000e+00 +3.1849711931e+03 3.1849711931e+03 5.0400000000e-03 0.0000e+00 1.0000e+00
       -1 -1    0    0    0  501 -0.0000000000e+00 -0.0000000000e+00 -2.1434700068e+03 2.1434700068e+03 5.0400000000e-03 0.0000e+00 -1.0000e+00
  1000011  2    1    2    0    0 +5.3942097870e+02 -9.8311691954e+02 +1.2463975903e+03 2.8060558190e+03 2.2500996503e+03 3.2687e+02 0.0000e+00
 -1000011  2    1    2    0    0 -5.3942097870e+02 +9.8311691954e+02 -2.0489640407e+02 2.5223853809e+03 2.2501003541e+03 1.1326e+03 0.0000e+00
       11  1    3    3    0    0 +3.6571589756e-02 -1.0551346772e-01 +1.5961168681e-01 1.9479918977e-01 5.1100000000e-04 0.0000e+00 1.0000e+00
  1000022  1    3    3    0    0 +5.3938440711e+02 -9.8301140607e+02 +1.2462379786e+03 2.8058610198e+03 2.2500000000e+03 0.0000e+00 0.0000e+00
      -11  1    4    4    0    0 -9.4589031032e-02 -4.7488717341e-03 -6.1428202919e-02 1.1288632165e-01 5.1100000000e-04 0.0000e+00 -1.0000e+00
  1000022  1    4    4    0    0 -5.3932638967e+02 +9.8312166841e+02 -2.0483497587e+02 2.5222724946e+03 2.2500000000e+03 0.0000e+00 0.0000e+00
<mgrwt>
<rscale>  0 0.52256637E+04</rscale>
<asrwt>0</asrwt>
<pdfrwt beam="1">  1        1 0.48999556E+00 0.52256637E+04</pdfrwt>
<pdfrwt beam="2">  1       -1 0.32976462E+00 0.52256637E+04</pdfrwt>
<totfact> 0.65345943E-03</totfact>
</mgrwt>
</event>
<event>
 8      1 +1.2359593e-08 4.89541200e+03 7.81860800e-03 7.84484700e-02
        2 -1    0    0  501    0 +0.0000000000e+00 +0.0000000000e+00 +2.9386726222e+03 2.9386726222e+03 2.5500000000e-03 0.0000e+00 1.0000e+00
       -2 -1    0    0    0  501 -0.0000000000e+00 -0.0000000000e+00 -2.0387651918e+03 2.0387651918e+03 2.5500000000e-03 0.0000e+00 -1.0000e+00
  1000011  2    1    2    0    0 -3.6395339021e+02 +7.0821617412e+02 -1.0161331731e+02 2.3889965653e+03 2.2500993541e+03 1.1887e+03 0.0000e+00
 -1000011  2    1    2    0    0 +3.6395339021e+02 -7.0821617412e+02 +1.0015207477e+03 2.5884412487e+03 2.2501004578e+03 9.3256e+02 0.0000e+00
       11  1    3    3    0    0 -3.1111921687e-02 +2.7345624601e-02 +9.3687507444e-02 1.0243702808e-01 5.1100000000e-04 0.0000e+00 1.0000e+00
  1000022  1    3    3    0    0 -3.6392227829e+02 +7.0818882850e+02 -1.0170700482e+02 2.3888941283e+03 2.2500000000e+03 0.0000e+00 0.0000e+00
      -11  1    4    4    0    0 -1.6268132621e-02 +3.6634190473e-02 +1.1090123644e-01 1.1792396214e-01 5.1100000000e-04 0.0000e+00 -1.0000e+00
  1000022  1    4    4    0    0 +3.6396965834e+02 -7.0825280831e+02 +1.0014098465e+03 2.5883233247e+03 2.2500000000e+03 0.0000e+00 0.0000e+00
<mgrwt>
<rscale>  0 0.48954115E+04</rscale>
<asrwt>0</asrwt>
<pdfrwt beam="1">  1        2 0.45210348E+00 0.48954115E+04</pdfrwt>
<pdfrwt beam="2">  1       -2 0.31365618E+00 0.48954115E+04</pdfrwt>
<totfact> 0.36559599E-02</totfact>
</mgrwt>
</event>
<event>
 8      1 +1.2359593e-08 5.32740200e+03 7.81860800e-03 7.77989600e-02
        2 -1    0    0  501    0 +0.0000000000e+00 +0.0000000000e+00 +2.9548026316e+03 2.9548026316e+03 2.5500000000e-03 0.0000e+00 1.0000e+00
       -2 -1    0    0    0  501 -0.0000000000e+00 -0.0000000000e+00 -2.4012782386e+03 2.4012782386e+03 2.5500000000e-03 0.0000e+00 -1.0000e+00
  1000011  2    1    2    0    0 +6.9716685619e+02 +9.2634235149e+02 -5.5728029834e+02 2.5918465505e+03 2.2501012050e+03 8.2387e+02 0.0000e+00
 -1000011  2    1    2    0    0 -6.9716685619e+02 -9.2634235149e+02 +1.1108046913e+03 2.7642343197e+03 2.2501005609e+03 1.9465e+03 0.0000e+00
       11  1    3    3    0    0 -6.8513967991e-02 +5.3954978276e-02 -4.6023810413e-02 9.8609104664e-02 5.1100000000e-04 0.0000e+00 1.0000e+00
  1000022  1    3    3    0    0 +6.9723537016e+02 +9.2628839651e+02 -5.5723427453e+02 2.5917479414e+03 2.2500000000e+03 0.0000e+00 0.0000e+00
      -11  1    4    4    0    0 +4.5835314925e-02 -1.0073978313e-01 +2.1749864520e-02 1.1279493421e-01 5.1100000000e-04 0.0000e+00 -1.0000e+00
  1000022  1    4    4    0    0 -6.9721269151e+02 -9.2624161171e+02 +1.1107829414e+03 2.7641215247e+03 2.2500000000e+03 0.0000e+00 0.0000e+00
<mgrwt>
<rscale>  0 0.53274021E+04</rscale>
<asrwt>0</asrwt>
<pdfrwt beam="1">  1        2 0.45458502E+00 0.53274021E+04</pdfrwt>
<pdfrwt beam="2">  1       -2 0.36942742E+00 0.53274021E+04</pdfrwt>
<totfact> 0.15432115E-02</totfact>
</mgrwt>
</event>
<event>
 8      1 +1.2359593e-08 5.00426400e+03 7.81860800e-03 7.82785000e-02
       -2 -1    0    0    0  501 -0.0000000000e+00 +0.0000000000e+00 +4.5150615500e+03 4.5150615500e+03 2.5500000000e-03 0.0000e+00 -1.0000e+00
        2 -1    0    0  501    0 +0.0000000000e+00 -0.0000000000e+00 -1.3866177581e+03 1.3866177581e+03 2.5500000000e-03 0.0000e+00 1.0000e+00
  1000011  2    1    2    0    0 +1.0943427472e+03 -1.1042924067e+01 +1.5675346184e+03 2.9525949383e+03 2.2500986857e+03 1.1451e+03 0.0000e+00
 -1000011  2    1    2    0    0 -1.0943427472e+03 +1.1042924067e+01 +1.5609091735e+03 2.9490843698e+03 2.2501007039e+03 6.1230e+02 0.0000e+00
       11  1    3    3    0    0 -1.3900453233e-03 -7.9498015877e-02 +1.0125476625e-01 1.2874259268e-01 5.1100000000e-04 0.0000e+00 1.0000e+00
  1000022  1    3    3    0    0 +1.0943441372e+03 -1.0963426051e+01 +1.5674333637e+03 2.9524661957e+03 2.2500000000e+03 0.0000e+00 0.0000e+00
      -11  1    4    4    0    0 -1.3771280508e-01 +5.8123972884e-02 +1.1981406796e-01 1.9156952858e-01 5.1100000000e-04 0.0000e+00 -1.0000e+00
  1000022  1    4    4    0    0 -1.0942050344e+03 +1.0984800094e+01 +1.5607893594e+03 2.9488928003e+03 2.2500000000e+03 0.0000e+00 0.0000e+00
<mgrwt>
<rscale>  0 0.50042640E+04</rscale>
<asrwt>0</asrwt>
<pdfrwt beam="1">  1        2 0.21332581E+00 0.50042640E+04</pdfrwt>
<pdfrwt beam="2">  1       -2 0.69462487E+00 0.50042640E+04</pdfrwt>
<totfact> 0.25708842E-03</totfact>
</mgrwt>
</event>
<event>
 8      1 +1.2359593e-08 4.62999300e+03 7.81860800e-03 7.88826600e-02
       -2 -1    0    0    0  501 -0.0000000000e+00 +0.0000000000e+00 +1.2850613059e+03 1.2850613059e+03 2.5500000000e-03 0.0000e+00 -1.0000e+00
        2 -1    0    0  501    0 +0.0000000000e+00 -0.0000000000e+00 -4.1703924098e+03 4.1703924098e+03 2.5500000000e-03 0.0000e+00 1.0000e+00
  1000011  2    1    2    0    0 +1.5237432589e+02 +3.2672215184e+02 -1.9231711968e+03 2.9818607539e+03 2.2500979542e+03 4.7100e+03 0.0000e+00
 -1000011  2    1    2    0    0 -1.5237432589e+02 -3.2672215184e+02 -9.6215990716e+02 2.4735929618e+03 2.2500989209e+03 1.4989e+02 0.0000e+00
       11  1    3    3    0    0 -3.8509761578e-02 -6.8879923335e-02 -3.2446484850e-02 8.5325731780e-02 5.1100000000e-04 0.0000e+00 1.0000e+00
  1000022  1    3    3    0    0 +1.5241283566e+02 +3.2679103177e+02 -1.9231387503e+03 2.9817754281e+03 2.2500000000e+03 0.0000e+00 0.0000e+00
      -11  1    4    4    0    0 -9.3770253322e-02 +1.4577153480e-02 -8.3159405421e-02 1.2617884620e-01 5.1100000000e-04 0.0000e+00 -1.0000e+00
  1000022  1    4    4    0    0 -1.5228055564e+02 -3.2673672900e+02 -9.6207674775e+02 2.4734667829e+03 2.2500000000e+03 0.0000e+00 0.0000e+00
<mgrwt>
<rscale>  0 0.46299935E+04</rscale>
<asrwt>0</asrwt>
<pdfrwt beam="1">  1        2 0.64159883E+00 0.46299935E+04</pdfrwt>
<pdfrwt beam="2">  1       -2 0.19770174E+00 0.46299935E+04</pdfrwt>
<totfact> 0.25325295E-02</totfact>
</mgrwt>
</event>
<event>
 8      1 +1.2359593e-08 5.55216600e+03 7.81860800e-03 7.74855200e-02
        1 -1    0    0  501    0 +0.0000000000e+00 +0.0000000000e+00 +2.9343181536e+03 2.9343181536e+03 5.0400000000e-03 0.0000e+00 1.0000e+00
       -1 -1    0    0    0  501 -0.0000000000e+00 -0.0000000000e+00 -2.6263807010e+03 2.6263807010e+03 5.0400000000e-03 0.0000e+00 -1.0000e+00
  1000011  2    1    2    0    0 -7.5336843072e+02 -2.5611161963e+02 +1.5740790313e+03 2.8589912546e+03 2.2500997851e+03 1.6016e+02 0.0000e+00
 -1000011  2    1    2    0    0 +7.5336843072e+02 +2.5611161963e+02 -1.2661415788e+03 2.7017075999e+03 2.2501005098e+03 2.3722e+03 0.0000e+00
       11  1    3    3    0    0 -4.7024046810e-02 -2.4006005315e-03 +1.8999655764e-01 1.9574467197e-01 5.1100000000e-04 0.0000e+00 1.0000e+00
  1000022  1    3    3    0    0 -7.5332140668e+02 -2.5610921903e+02 +1.5738890348e+03 2.8587955099e+03 2.2500000000e+03 0.0000e+00 0.0000e+00
      -11  1    4    4    0    0 +5.6634539765e-02 +1.0307945453e-01 -2.2256676978e-02 1.1970156891e-01 5.1100000000e-04 0.0000e+00 -1.0000e+00
  1000022  1    4    4    0    0 +7.5331179618e+02 +2.5600854017e+02 -1.2661193221e+03 2.7015878984e+03 2.2500000000e+03 0.0000e+00 0.0000e+00
<mgrwt>
<rscale>  0 0.55521659E+04</rscale>
<asrwt>0</asrwt>
<pdfrwt beam="1">  1        1 0.45143356E+00 0.55521659E+04</pdfrwt>
<pdfrwt beam="2">  1       -1 0.40405857E+00 0.55521659E+04</pdfrwt>
<totfact> 0.30980973E-03</totfact>
</mgrwt>
</event>
<event>
 8      1 +1.2359593e-08 6.48909300e+03 7.81860800e-03 7.63255100e-02
       -2 -1    0    0    0  501 -0.0000000000e+00 +0.0000000000e+00 +3.0840830502e+03 3.0840830502e+03 2.5500000000e-03 0.0000e+00 -1.0000e+00
        2 -1    0    0  501    0 +0.0000000000e+00 -0.0000000000e+00 -3.4133592535e+03 3.4133592535e+03 2.5500000000e-03 0.0000e+00 1.0000e+00
  1000011  2    1    2    0    0 +1.5254314550e+03 -1.7598243645e+03 +3.6137827948e+01 3.2385468721e+03 2.2501015494e+03 1.2054e+03 0.0000e+00
 -1000011  2    1    2    0    0 -1.5254314550e+03 +1.7598243645e+03 -3.6541403132e+02 3.2588954316e+03 2.2500997982e+03 2.1149e+03 0.0000e+00
       11  1    3    3    0    0 -1.6285416112e-02 -2.7161071659e-02 -7.0031175982e-02 7.6860686984e-02 5.1100000000e-04 0.0000e+00 1.0000e+00
  1000022  1    3    3    0    0 +1.5254477404e+03 -1.7597972034e+03 +3.6207859124e+01 3.2384700114e+03 2.2500000000e+03 0.0000e+00 0.0000e+00
      -11  1    4    4    0    0 -1.1665909423e-01 +1.4961332313e-01 +5.6531181283e-02 1.9796344608e-01 5.1100000000e-04 0.0000e+00 -1.0000e+00
  1000022  1    4    4    0    0 -1.5253147959e+03 +1.7596747512e+03 -3.6547056250e+02 3.2586974681e+03 2.2500000000e+03 0.0000e+00 0.0000e+00
<mgrwt>
<rscale>  0 0.64890934E+04</rscale>
<asrwt>0</asrwt>
<pdfrwt beam="1">  1        2 0.52513219E+00 0.64890934E+04</pdfrwt>
<pdfrwt beam="2">  1       -2 0.47447432E+00 0.64890934E+04</pdfrwt>
<totfact> 0.14615005E-03</totfact>
</mgrwt>
</event>
<event>
 8      1 +1.2359593e-08 4.82753000e+03 7.81860800e-03 7.85567700e-02
        2 -1    0    0  501    0 +0.0000000000e+00 +0.0000000000e+00 +1.1375179471e+03 1.1375179471e+03 2.5500000000e-03 0.0000e+00 1.0000e+00
       -2 -1    0    0    0  501 -0.0000000000e+00 -0.0000000000e+00 -5.1219066292e+03 5.1219066292e+03 2.5500000000e-03 0.0000e+00 -1.0000e+00
  1000011  2    1    2    0    0 -4.7224352878e+02 +7.1150384930e+02 -1.7529449872e+03 2.9774176220e+03 2.2500995289e+03 8.2627e+02 0.0000e+00
 -1000011  2    1    2    0    0 +4.7224352878e+02 -7.1150384930e+02 -2.2314436948e+03 3.2820069543e+03 2.2501059990e+03 5.4295e+02 0.0000e+00
       11  1    3    3    0    0 +2.7411430775e-02 +1.1988281656e-01 -8.2521913513e-02 1.4809930161e-01 5.1100000000e-04 0.0000e+00 1.0000e+00
  1000022  1    3    3    0    0 -4.7227094021e+02 +7.1138396648e+02 -1.7528624653e+03 2.9772695227e+03 2.2500000000e+03 0.0000e+00 0.0000e+00
      -11  1    4    4    0    0 +8.4833504480e-02 -1.2482491934e-01 -1.1033978603e-01 1.8695751763e-01 5.1100000000e-04 0.0000e+00 -1.0000e+00
  1000022  1    4    4    0    0 +4.7215869528e+02 -7.1137902438e+02 -2.2313333550e+03 3.2818199968e+03 2.2500000000e+03 0.0000e+00 0.0000e+00
<mgrwt>
<rscale>  0 0.48275297E+04</rscale>
<asrwt>0</asrwt>
<pdfrwt beam="1">  1        2 0.17500276E+00 0.48275297E+04</pdfrwt>
<pdfrwt beam="2">  1       -2 0.78798562E+00 0.48275297E+04</pdfrwt>
<totfact> 0.14084625E-03</totfact>
</mgrwt>
</event>
<event>
 8      1 +1.2359593e-08 5.29813600e+03 7.81860800e-03 7.78409300e-02
       -2 -1    0    0    0  501 -0.0000000000e+00 +0.0000000000e+00 +1.6682311496e+03 1.6682311496e+03 2.5500000000e-03 0.0000e+00 -1.0000e+00
        2 -1    0    0  501    0 +0.0000000000e+00 -0.0000000000e+00 -4.2065877222e+03 4.2065877222e+03 2.5500000000e-03 0.0000e+00 1.0000e+00
  1000011  2    1    2    0    0 +1.9687976289e+02 -2.1863886524e+02 -2.7847123451e+03 3.5922321137e+03 2.2500986911e+03 4.8237e+01 0.0000e+00
 -1000011  2    1    2    0    0 -1.9687976289e+02 +2.1863886524e+02 +2.4635577250e+02 2.2825867580e+03 2.2500992305e+03 1.4853e+03 0.0000e+00
       11  1    3    3    0    0 +5.7261810798e-02 -3.9644615663e-02 -2.5870925042e-01 2.6792041345e-01 5.1100000000e-04 0.0000e+00 1.0000e+00
  1000022  1    3    3    0    0 +1.9682250108e+02 -2.1859922062e+02 -2.7844536358e+03 3.5919641933e+03 2.2500000000e+03 0.0000e+00 0.0000e+00
      -11  1    4    4    0    0 +1.2493494957e-02 +8.3205989049e-02 +7.5158331597e-02 1.1282003202e-01 5.1100000000e-04 0.0000e+00 -1.0000e+00
  1000022  1    4    4    0    0 -1.9689225638e+02 +2.1855565925e+02 +2.4628061417e+02 2.2824739380e+03 2.2500000000e+03 0.0000e+00 0.0000e+00
<mgrwt>
<rscale>  0 0.52981358E+04</rscale>
<asrwt>0</asrwt>
<pdfrwt beam="1">  1        2 0.64716734E+00 0.52981358E+04</pdfrwt>
<pdfrwt beam="2">  1       -2 0.25665095E+00 0.52981358E+04</pdfrwt>
<totfact> 0.94798304E-03</totfact>
</mgrwt>
</event>
<event>
 8      1 +1.2359593e-08 5.47717700e+03 7.81860800e-03 7.75883700e-02
       -2 -1    0    0    0  501 -0.0000000000e+00 +0.0000000000e+00 +2.8146563084e+03 2.8146563084e+03 2.5500000000e-03 0.0000e+00 -1.0000e+00
        2 -1    0    0  501    0 +0.0000000000e+00 -0.0000000000e+00 -2.6645768332e+03 2.6645768332e+03 2.5500000000e-03 0.0000e+00 1.0000e+00
  1000011  2    1    2    0    0 -1.0409216981e+03 +1.1117647326e+03 -2.6769533938e+02 2.7302288656e+03 2.2501000114e+03 1.6246e+03 0.0000e+00
 -1000011  2    1    2    0    0 +1.0409216981e+03 -1.1117647326e+03 +4.1777481456e+02 2.7490042760e+03 2.2500999781e+03 9.4606e+02 0.0000e+00
       11  1    3    3    0    0 -6.5075306642e-02 +1.0324340298e-02 -1.0200787113e-01 1.2143827145e-01 5.1100000000e-04 0.0000e+00 1.0000e+00
  1000022  1    3    3    0    0 -1.0408566228e+03 +1.1117544083e+03 -2.6759333151e+02 2.7301074273e+03 2.2500000000e+03 0.0000e+00 0.0000e+00
      -11  1    4    4    0    0 +1.1076831808e-01 -5.2190394919e-02 +1.0406625346e-01 1.6069693088e-01 5.1100000000e-04 0.0000e+00 -1.0000e+00
  1000022  1    4    4    0    0 +1.0408109298e+03 -1.1117125422e+03 +4.1767074831e+02 2.7488435791e+03 2.2500000000e+03 0.0000e+00 0.0000e+00
<mgrwt>
<rscale>  0 0.54771774E+04</rscale>
<asrwt>0</asrwt>
<pdfrwt beam="1">  1        2 0.40993490E+00 0.54771774E+04</pdfrwt>
<pdfrwt beam="2">  1       -2 0.43302405E+00 0.54771774E+04</pdfrwt>
<totfact> 0.88092540E-03</totfact>
</mgrwt>
</event>
<event>
 8      1 +1.2359593e-08 4.94532900e+03 7.81860800e-03 7.83699600e-02
       -2 -1    0    0    0  501 -0.0000000000e+00 +0.0000000000e+00 +2.3434213907e+03 2.3434213907e+03 2.5500000000e-03 0.0000e+00 -1.0000e+00
        2 -1    0    0  501    0 +0.0000000000e+00 -0.0000000000e+00 -2.6090360197e+03 2.6090360197e+03 2.5500000000e-03 0.0000e+00 1.0000e+00
  1000011  2    1    2    0    0 +2.4705703314e+01 +5.0889394953e+02 -1.0237720775e+03 2.5240135268e+03 2.2501003518e+03 9.2092e+01 0.0000e+00
 -1000011  2    1    2    0    0 -2.4705703314e+01 -5.0889394953e+02 +7.5815744852e+02 2.4284438837e+03 2.2501007879e+03 6.6869e+02 0.0000e+00
       11  1    3    3    0    0 +5.2849994715e-02 +9.2840007071e-02 +4.3772847856e-03 1.0691964541e-01 5.1100000000e-04 0.0000e+00 1.0000e+00
  1000022  1    3    3    0    0 +2.4652853320e+01 +5.0880110952e+02 -1.0237764548e+03 2.5239066071e+03 2.2500000000e+03 0.0000e+00 0.0000e+00
      -11  1    4    4    0    0 -8.7721665695e-03 +6.5186517242e-02 +8.2622703534e-02 1.0560778716e-01 5.1100000000e-04 0.0000e+00 -1.0000e+00
  1000022  1    4    4    0    0 -2.4696931148e+01 -5.0895913604e+02 +7.5807482582e+02 2.4283382759e+03 2.2500000000e+03 0.0000e+00 0.0000e+00
<mgrwt>
<rscale>  0 0.49453294E+04</rscale>
<asrwt>0</asrwt>
<pdfrwt beam="1">  1        2 0.40139016E+00 0.49453294E+04</pdfrwt>
<pdfrwt beam="2">  1       -2 0.36052637E+00 0.49453294E+04</pdfrwt>
<totfact> 0.29335344E-02</totfact>
</mgrwt>
</event>
<event>
 8      1 +1.2359593e-08 4.63371000e+03 7.81860800e-03 7.88763700e-02
        1 -1    0    0  501    0 +0.0000000000e+00 +0.0000000000e+00 +2.3959584821e+03 2.3959584821e+03 5.0400000000e-03 0.0000e+00 1.0000e+00
       -1 -1    0    0    0  501 -0.0000000000e+00 -0.0000000000e+00 -2.2403629212e+03 2.2403629212e+03 5.0400000000e-03 0.0000e+00 -1.0000e+00
  1000011  2    1    2    0    0 +2.7133207457e+02 -3.7422848694e+02 +3.7995589624e+02 2.3283013572e+03 2.2501005915e+03 1.0710e+03 0.0000e+00
 -1000011  2    1    2    0    0 -2.7133207457e+02 +3.7422848694e+02 -2.2436033534e+02 2.3080200461e+03 2.2501002017e+03 1.6628e+03 0.0000e+00
       11  1    3    3    0    0 +3.8450973556e-02 -1.0886454407e-01 +5.6026854959e-02 1.2833251888e-01 5.1100000000e-04 0.0000e+00 1.0000e+00
  1000022  1    3    3    0    0 +2.7129362360e+02 -3.7411962239e+02 +3.7989986939e+02 2.3281730247e+03 2.2500000000e+03 0.0000e+00 0.0000e+00
      -11  1    4    4    0    0 -5.1446404858e-02 -6.5469511884e-02 -5.2007027520e-02 9.8173221399e-02 5.1100000000e-04 0.0000e+00 -1.0000e+00
  1000022  1    4    4    0    0 -2.7128062817e+02 +3.7429395645e+02 -2.2430832832e+02 2.3079218729e+03 2.2500000000e+03 0.0000e+00 0.0000e+00
<mgrwt>
<rscale>  0 0.46337098E+04</rscale>
<asrwt>0</asrwt>
<pdfrwt beam="1">  1        1 0.36860900E+00 0.46337098E+04</pdfrwt>
<pdfrwt beam="2">  1       -1 0.34467122E+00 0.46337098E+04</pdfrwt>
<totfact> 0.20030692E-02</totfact>
</mgrwt>
</event>
<event>
 8      1 +1.2359593e-08 4.99988400e+03 7.81860800e-03 7.82852500e-02
       -2 -1    0    0    0  501 -0.0000000000e+00 +0.0000000000e+00 +2.2734351228e+03 2.2734351228e+03 2.5500000000e-03 0.0000e+00 -1.0000e+00
        2 -1    0    0  501    0 +0.0000000000e+00 -0.0000000000e+00 -2.7490165886e+03 2.7490165886e+03 2.5500000000e-03 0.0000e+00 1.0000e+00
  1000011  2    1    2    0    0 -4.1589084311e+02 -1.0041379853e+03 -1.6318688060e+02 2.5041590362e+03 2.2500942722e+03 2.8230e+03 0.0000e+00
 -1000011  2    1    2    0    0 +4.1589084311e+02 +1.0041379853e+03 -3.1239458515e+02 2.5182926752e+03 2.2500998499e+03 7.6699e+02 0.0000e+00
       11  1    3    3    0    0 -2.7550587728e-02 +3.4220798075e-02 -6.6746348663e-02 7.9908910015e-02 5.1100000000e-04 0.0000e+00 1.0000e+00
  1000022  1    3    3    0    0 -4.1586329252e+02 -1.0041722061e+03 -1.6312013425e+02 2.5040791273e+03 2.2500000000e+03 0.0000e+00 0.0000e+00
      -11  1    4    4    0    0 +1.0121834426e-01 +2.5431097654e-02 +3.8615164479e-02 1.1128021253e-01 5.1100000000e-04 0.0000e+00 -1.0000e+00
  1000022  1    4    4    0    0 +4.1578962477e+02 +1.0041125542e+03 -3.1243320031e+02 2.5181813950e+03 2.2500000000e+03 0.0000e+00 0.0000e+00
<mgrwt>
<rscale>  0 0.49998843E+04</rscale>
<asrwt>0</asrwt>
<pdfrwt beam="1">  1        2 0.42292563E+00 0.49998843E+04</pdfrwt>
<pdfrwt beam="2">  1       -2 0.34975925E+00 0.49998843E+04</pdfrwt>
<totfact> 0.28211288E-02</totfact>
</mgrwt>
</event>
<event>
 8      1 +1.2359593e-08 4.63733100e+03 7.81860800e-03 7.88702600e-02
       -2 -1    0    0    0  501 -0.0000000000e+00 +0.0000000000e+00 +3.7644686592e+03 3.7644686592e+03 2.5500000000e-03 0.0000e+00 -1.0000e+00
        2 -1    0    0  501    0 +0.0000000000e+00 -0.0000000000e+00 -1.4281459812e+03 1.4281459812e+03 2.5500000000e-03 0.0000e+00 1.0000e+00
  1000011  2    1    2    0    0 -4.9659877105e+02 +2.3391372199e+02 +1.2904963530e+03 2.6513503427e+03 2.2501004053e+03 5.1559e+01 0.0000e+00
 -1000011  2    1    2    0    0 +4.9659877105e+02 -2.3391372199e+02 +1.0458263250e+03 2.5412642976e+03 2.2500990111e+03 7.7182e+02 0.0000e+00
       11  1    3    3    0    0 +4.2998301750e-02 +4.9803272289e-02 -2.3792097246e-02 6.9968169254e-02 5.1100000000e-04 0.0000e+00 1.0000e+00
  1000022  1    3    3    0    0 -4.9664176935e+02 +2.3386391872e+02 +1.2905201451e+03 2.6512803745e+03 2.2500000000e+03 0.0000e+00 0.0000e+00
      -11  1    4    4    0    0 +5.2007027505e-02 +4.1317992835e-02 +1.3319576030e-01 1.4883977486e-01 5.1100000000e-04 0.0000e+00 -1.0000e+00
  1000022  1    4    4    0    0 +4.9654676402e+02 -2.3395503998e+02 +1.0456931292e+03 2.5411154579e+03 2.2500000000e+03 0.0000e+00 0.0000e+00
<mgrwt>
<rscale>  0 0.46373315E+04</rscale>
<asrwt>0</asrwt>
<pdfrwt beam="1">  1        2 0.21971477E+00 0.46373315E+04</pdfrwt>
<pdfrwt beam="2">  1       -2 0.57914902E+00 0.46373315E+04</pdfrwt>
<totfact> 0.65208717E-03</totfact>
</mgrwt>
</event>
<event>
 8      1 +1.2359593e-08 5.09471900e+03 7.81860800e-03 7.81406000e-02
        2 -1    0    0  501    0 +0.0000000000e+00 +0.0000000000e+00 +3.5427998588e+03 3.5427998588e+03 2.5500000000e-03 0.0000e+00 1.0000e+00
       -2 -1    0    0    0  501 -0.0000000000e+00 -0.0000000000e+00 -1.8316133938e+03 1.8316133938e+03 2.5500000000e-03 0.0000e+00 -1.0000e+00
  1000011  2    1    2    0    0 +4.1441591198e+02 -8.1131997568e+02 +1.6700586726e+03 2.9465272296e+03 2.2500991298e+03 1.8689e+02 0.0000e+00
 -1000011  2    1    2    0    0 -4.1441591198e+02 +8.1131997568e+02 +4.1127792454e+01 2.4278860231e+03 2.2501018632e+03 8.0022e+02 0.0000e+00
       11  1    3    3    0    0 +4.7435948373e-02 -1.3593054453e-01 +7.5263417364e-02 1.6245653272e-01 5.1100000000e-04 0.0000e+00 1.0000e+00
  1000022  1    3    3    0    0 +4.1436847603e+02 -8.1118404513e+02 +1.6699834091e+03 2.9463647730e+03 2.2500000000e+03 0.0000e+00 0.0000e+00
      -11  1    4    4    0    0 -2.2475183478e-02 +8.4755353383e-02 -8.9155794893e-02 1.2505047061e-01 5.1100000000e-04 0.0000e+00 -1.0000e+00
  1000022  1    4    4    0    0 -4.1439343680e+02 +8.1123522033e+02 +4.1216948249e+01 2.4277609726e+03 2.2500000000e+03 0.0000e+00 0.0000e+00
<mgrwt>
<rscale>  0 0.50947187E+04</rscale>
<asrwt>0</asrwt>
<pdfrwt beam="1">  1        2 0.54504613E+00 0.50947187E+04</pdfrwt>
<pdfrwt beam="2">  1       -2 0.28178668E+00 0.50947187E+04</pdfrwt>
<totfact> 0.22458305E-02</totfact>
</mgrwt>
</event>
<event>
 8      1 +1.2359593e-08 4.63217600e+03 7.81860800e-03 7.88789700e-02
       -1 -1    0    0    0  501 -0.0000000000e+00 +0.0000000000e+00 +2.3098841439e+03 2.3098841439e+03 5.0400000000e-03 0.0000e+00 -1.0000e+00
        1 -1    0    0  501    0 +0.0000000000e+00 -0.0000000000e+00 -2.3223088113e+03 2.3223088113e+03 5.0400000000e-03 0.0000e+00 1.0000e+00
  1000011  2    1    2    0    0 +2.6833631387e+02 -4.7756205761e+02 +2.9045967117e+01 2.3160011813e+03 2.2500995328e+03 5.3577e+01 0.0000e+00
 -1000011  2    1    2    0    0 -2.6833631387e+02 +4.7756205761e+02 -4.1470634581e+01 2.3161917739e+03 2.2501010252e+03 2.1818e+02 0.0000e+00
       11  1    3    3    0    0 +9.5862251804e-02 +2.4911937258e-02 +2.8345809082e-02 1.0302388919e-01 5.1100000000e-04 0.0000e+00 1.0000e+00
  1000022  1    3    3    0    0 +2.6824045162e+02 -4.7758696955e+02 +2.9017621308e+01 2.3158981575e+03 2.2500000000e+03 0.0000e+00 0.0000e+00
      -11  1    4    4    0    0 +5.1395883465e-02 +2.9943171721e-02 +7.6604950009e-02 9.6988192488e-02 5.1100000000e-04 0.0000e+00 -1.0000e+00
  1000022  1    4    4    0    0 -2.6838770975e+02 +4.7753211444e+02 -4.1547239531e+01 2.3160947857e+03 2.2500000000e+03 0.0000e+00 0.0000e+00
<mgrwt>
<rscale>  0 0.46321763E+04</rscale>
<asrwt>0</asrwt>
<pdfrwt beam="1">  1        1 0.35727828E+00 0.46321763E+04</pdfrwt>
<pdfrwt beam="2">  1       -1 0.35536679E+00 0.46321763E+04</pdfrwt>
<totfact> 0.19118435E-02</totfact>
</mgrwt>
</event>
<event>
 8      1 +1.2359593e-08 4.96414600e+03 7.81860800e-03 7.83406200e-02
        2 -1    0    0  501    0 +0.0000000000e+00 +0.0000000000e+00 +4.0285652189e+03 4.0285652189e+03 2.5500000000e-03 0.0000e+00 1.0000e+00
       -2 -1    0    0    0  501 -0.0000000000e+00 -0.0000000000e+00 -1.5292508412e+03 1.5292508412e+03 2.5500000000e-03 0.0000e+00 -1.0000e+00
  1000011  2    1    2    0    0 +1.0004266641e+01 -8.2021081362e+02 +5.1986785468e+02 2.4507268121e+03 2.2501007660e+03 6.6722e+02 0.0000e+00
 -1000011  2    1    2    0    0 -1.0004266641e+01 +8.2021081362e+02 +1.9794465230e+03 3.1070892481e+03 2.2500998187e+03 5.0876e+01 0.0000e+00
       11  1    3    3    0    0 -3.0241292581e-02 -2.6482133350e-02 +1.2021059929e-01 1.2675444114e-01 5.1100000000e-04 0.0000e+00 1.0000e+00
  1000022  1    3    3    0    0 +1.0034507933e+01 -8.2018433149e+02 +5.1974764408e+02 2.4506000576e+03 2.2500000000e+03 0.0000e+00 0.0000e+00
      -11  1    4    4    0    0 -5.6802707784e-02 +6.8918682092e-02 -2.0804476554e-03 8.9336000920e-02 5.1100000000e-04 0.0000e+00 -1.0000e+00
  1000022  1    4    4    0    0 -9.9474639331e+00 +8.2014189494e+02 +1.9794486035e+03 3.1069999121e+03 2.2500000000e+03 0.0000e+00 0.0000e+00
<mgrwt>
<rscale>  0 0.49641462E+04</rscale>
<asrwt>0</asrwt>
<pdfrwt beam="1">  1        2 0.61977926E+00 0.49641462E+04</pdfrwt>
<pdfrwt beam="2">  1       -2 0.23526936E+00 0.49641462E+04</pdfrwt>
<totfact> 0.18674952E-02</totfact>
</mgrwt>
</event>
<event>
 8      1 +1.2359593e-08 5.71891100e+03 7.81860800e-03 7.72626500e-02
       -2 -1    0    0    0  501 -0.0000000000e+00 +0.0000000000e+00 +2.1378657540e+03 2.1378657540e+03 2.5500000000e-03 0.0000e+00 -1.0000e+00
        2 -1    0    0  501    0 +0.0000000000e+00 -0.0000000000e+00 -3.8246016043e+03 3.8246016043e+03 2.5500000000e-03 0.0000e+00 1.0000e+00
  1000011  2    1    2    0    0 +3.7349379868e+02 -5.0374966211e+02 +8.7619796961e+02 2.4947807466e+03 2.2500992760e+03 4.7509e+02 0.0000e+00
 -1000011  2    1    2    0    0 -3.7349379868e+02 +5.0374966211e+02 -2.5629338199e+03 3.4676866118e+03 2.2501020715e+03 2.1793e+03 0.0000e+00
       11  1    3    3    0    0 +4.4954002676e-02 +1.3119569358e-02 -5.6846495806e-02 7.3653040567e-02 5.1100000000e-04 0.0000e+00 1.0000e+00
  1000022  1    3    3    0    0 +3.7344884468e+02 -5.0376278168e+02 +8.7625481611e+02 2.4947070935e+03 2.2500000000e+03 0.0000e+00 0.0000e+00
      -11  1    4    4    0    0 +5.3321709309e-02 +5.6600156498e-03 +9.3129241184e-03 5.4426388194e-02 5.1100000000e-04 0.0000e+00 -1.0000e+00
  1000022  1    4    4    0    0 -3.7354712039e+02 +5.0374400209e+02 -2.5629431328e+03 3.4676321854e+03 2.2500000000e+03 0.0000e+00 0.0000e+00
<mgrwt>
<rscale>  0 0.57189107E+04</rscale>
<asrwt>0</asrwt>
<pdfrwt beam="1">  1        2 0.58840025E+00 0.57189107E+04</pdfrwt>
<pdfrwt beam="2">  1       -2 0.32890242E+00 0.57189107E+04</pdfrwt>
<totfact> 0.67954402E-03</totfact>
</mgrwt>
</event>
<event>
 8      1 +1.2359593e-08 5.48179900e+03 7.81860800e-03 7.75819900e-02
       -2 -1    0    0    0  501 -0.0000000000e+00 +0.0000000000e+00 +1.9886422847e+03 1.9886422847e+03 2.5500000000e-03 0.0000e+00 -1.0000e+00
        2 -1    0    0  501    0 +0.0000000000e+00 -0.0000000000e+00 -3.7777182392e+03 3.7777182392e+03 2.5500000000e-03 0.0000e+00 1.0000e+00
  1000011  2    1    2    0    0 +2.7794250415e+02 -5.1976980392e+02 +6.3061671215e+02 2.4099826632e+03 2.2500947346e+03 4.1574e+02 0.0000e+00
 -1000011  2    1    2    0    0 -2.7794250415e+02 +5.1976980392e+02 -2.4196926667e+03 3.3563778608e+03 2.2500993442e+03 1.0853e+01 0.0000e+00
       11  1    3    3    0    0 +2.5221276608e-02 -9.9838398676e-02 +8.9179687463e-02 1.3622443343e-01 5.1100000000e-04 0.0000e+00 1.0000e+00
  1000022  1    3    3    0    0 +2.7791728288e+02 -5.1966996552e+02 +6.3052753246e+02 2.4098464388e+03 2.2500000000e+03 0.0000e+00 0.0000e+00
      -11  1    4    4    0    0 -9.3131637870e-02 +2.0454893755e-02 -2.0052509069e-01 2.2204161161e-01 5.1100000000e-04 0.0000e+00 -1.0000e+00
  1000022  1    4    4    0    0 -2.7784937252e+02 +5.1974934903e+02 -2.4194921416e+03 3.3561558192e+03 2.2500000000e+03 0.0000e+00 0.0000e+00
<mgrwt>
<rscale>  0 0.54817991E+04</rscale>
<asrwt>0</asrwt>
<pdfrwt beam="1">  1        2 0.58118742E+00 0.54817991E+04</pdfrwt>
<pdfrwt beam="2">  1       -2 0.30594497E+00 0.54817991E+04</pdfrwt>
<totfact> 0.10420957E-02</totfact>
</mgrwt>
</event>
<event>
 8      1 +1.2359593e-08 5.12825500e+03 7.81860800e-03 7.80902200e-02
        2 -1    0    0  501    0 +0.0000000000e+00 +0.0000000000e+00 +3.0458535634e+03 3.0458535634e+03 2.5500000000e-03 0.0000e+00 1.0000e+00
       -2 -1    0    0    0  501 -0.0000000000e+00 -0.0000000000e+00 -2.1585902590e+03 2.1585902590e+03 2.5500000000e-03 0.0000e+00 -1.0000e+00
  1000011  2    1    2    0    0 -6.6010665096e+02 -9.5122819263e+02 +8.6355936169e+02 2.6738100875e+03 2.2500999417e+03 1.6990e+02 0.0000e+00
 -1000011  2    1    2    0    0 +6.6010665096e+02 +9.5122819263e+02 +2.3703942754e+01 2.5306337349e+03 2.2501042994e+03 9.1412e+02 0.0000e+00
       11  1    3    3    0    0 -2.4054036341e-02 +5.1707817107e-02 +7.8435390131e-02 9.6977658566e-02 5.1100000000e-04 0.0000e+00 1.0000e+00
  1000022  1    3    3    0    0 -6.6008259692e+02 -9.5127990045e+02 +8.6348092630e+02 2.6737131099e+03 2.2500000000e+03 0.0000e+00 0.0000e+00
      -11  1    4    4    0    0 -1.5648112172e-02 +1.3818815840e-01 -1.9372478117e-02 1.4041504357e-01 5.1100000000e-04 0.0000e+00 -1.0000e+00
  1000022  1    4    4    0    0 +6.6012229907e+02 +9.5109000447e+02 +2.3723315232e+01 2.5304933199e+03 2.2500000000e+03 0.0000e+00 0.0000e+00
<mgrwt>
<rscale>  0 0.51282550E+04</rscale>
<asrwt>0</asrwt>
<pdfrwt beam="1">  1        2 0.46859286E+00 0.51282550E+04</pdfrwt>
<pdfrwt beam="2">  1       -2 0.33209081E+00 0.51282550E+04</pdfrwt>
<totfact> 0.23639018E-02</totfact>
</mgrwt>
</event>
<event>
 8      1 +1.2359593e-08 5.35915800e+03 7.81860800e-03 7.77537200e-02
       -2 -1    0    0    0  501 -0.0000000000e+00 +0.0000000000e+00 +3.1267952269e+03 3.1267952269e+03 2.5500000000e-03 0.0000e+00 -1.0000e+00
        2 -1    0    0  501    0 +0.0000000000e+00 -0.0000000000e+00 -2.2963271160e+03 2.2963271160e+03 2.5500000000e-03 0.0000e+00 1.0000e+00
  1000011  2    1    2    0    0 -9.4898018216e+02 -1.0179991869e+03 -1.4475880146e+01 2.6457518862e+03 2.2500906119e+03 6.1771e+01 0.0000e+00
 -1000011  2    1    2    0    0 +9.4898018216e+02 +1.0179991869e+03 +8.4494399102e+02 2.7773704566e+03 2.2501045697e+03 5.8176e+02 0.0000e+00
       11  1    3    3    0    0 +4.9274617940e-02 -1.0048199204e-02 -3.8709805485e-02 6.3463879896e-02 5.1100000000e-04 0.0000e+00 1.0000e+00
  1000022  1    3    3    0    0 -9.4902945678e+02 -1.0179891387e+03 -1.4437170341e+01 2.6456884224e+03 2.2500000000e+03 0.0000e+00 0.0000e+00
      -11  1    4    4    0    0 +6.4779195420e-02 +1.4699574477e-01 -2.9935256366e-04 1.6063761518e-01 5.1100000000e-04 0.0000e+00 -1.0000e+00
  1000022  1    4    4    0    0 +9.4891540297e+02 +1.0178521911e+03 +8.4494429037e+02 2.7772098190e+03 2.2500000000e+03 0.0000e+00 0.0000e+00
<mgrwt>
<rscale>  0 0.53591584E+04</rscale>
<asrwt>0</asrwt>
<pdfrwt beam="1">  1        2 0.35328109E+00 0.53591584E+04</pdfrwt>
<pdfrwt beam="2">  1       -2 0.48104542E+00 0.53591584E+04</pdfrwt>
<totfact> 0.70548908E-03</totfact>
</mgrwt>
</event>
<event>
 8      1 +1.2359593e-08 5.35598300e+03 7.81860800e-03 7.77582300e-02
        2 -1    0    0  501    0 +0.0000000000e+00 +0.0000000000e+00 +2.9232626452e+03 2.9232626452e+03 2.5500000000e-03 0.0000e+00 1.0000e+00
       -2 -1    0    0    0  501 -0.0000000000e+00 -0.0000000000e+00 -2.4532998007e+03 2.4532998007e+03 2.5500000000e-03 0.0000e+00 -1.0000e+00
  1000011  2    1    2    0    0 -1.4061742084e+03 +3.3290851788e+02 +9.1170948521e+01 2.6757084983e+03 2.2500999623e+03 7.8687e+02 0.0000e+00
 -1000011  2    1    2    0    0 +1.4061742084e+03 -3.3290851788e+02 +3.7879189604e+02 2.7008539476e+03 2.2501054997e+03 2.2244e+03 0.0000e+00
       11  1    3    3    0    0 -4.4027348457e-02 +9.8821457605e-03 +1.0241640241e-01 1.1191713274e-01 5.1100000000e-04 0.0000e+00 1.0000e+00
  1000022  1    3    3    0    0 -1.4061301811e+03 +3.3289863573e+02 +9.1068532119e+01 2.6755965812e+03 2.2500000000e+03 0.0000e+00 0.0000e+00
      -11  1    4    4    0    0 +8.0631926120e-02 +1.2452771312e-02 -8.3361482301e-02 1.1664465860e-01 5.1100000000e-04 0.0000e+00 -1.0000e+00
  1000022  1    4    4    0    0 +1.4060935765e+03 -3.3292097065e+02 +3.7887525752e+02 2.7007373029e+03 2.2500000000e+03 0.0000e+00 0.0000e+00
<mgrwt>
<rscale>  0 0.53559834E+04</rscale>
<asrwt>0</asrwt>
<pdfrwt beam="1">  1        2 0.44973271E+00 0.53559834E+04</pdfrwt>
<pdfrwt beam="2">  1       -2 0.37743074E+00 0.53559834E+04</pdfrwt>
<totfact> 0.14311768E-02</totfact>
</mgrwt>
</event>
<event>
 8      1 +1.2359593e-08 5.16174700e+03 7.81860800e-03 7.80402900e-02
        2 -1    0    0  501    0 +0.0000000000e+00 +0.0000000000e+00 +2.0875857024e+03 2.0875857024e+03 2.5500000000e-03 0.0000e+00 1.0000e+00
       -2 -1    0    0    0  501 -0.0000000000e+00 -0.0000000000e+00 -3.1907236507e+03 3.1907236507e+03 2.5500000000e-03 0.0000e+00 -1.0000e+00
  1000011  2    1    2    0    0 +1.0367951280e+03 -2.1776205322e+02 -1.2567857044e+03 2.7865439950e+03 2.2501005933e+03 4.6416e+01 0.0000e+00
 -1000011  2    1    2    0    0 -1.0367951280e+03 +2.1776205322e+02 +1.5364775607e+02 2.4917653581e+03 2.2500938909e+03 1.1904e+02 0.0000e+00
       11  1    3    3    0    0 +2.0995592963e-02 -8.8842201426e-02 -1.1802907657e-01 1.4921419240e-01 5.1100000000e-04 0.0000e+00 1.0000e+00
  1000022  1    3    3    0    0 +1.0367741324e+03 -2.1767321102e+02 -1.2566676753e+03 2.7863947808e+03 2.2500000000e+03 0.0000e+00 0.0000e+00
      -11  1    4    4    0    0 -7.3013287586e-04 -6.6710433425e-02 -3.8240321316e-02 7.6898621001e-02 5.1100000000e-04 0.0000e+00 -1.0000e+00
  1000022  1    4    4    0    0 -1.0367943978e+03 +2.1782876365e+02 +1.5368599639e+02 2.4916884595e+03 2.2500000000e+03 0.0000e+00 0.0000e+00
<mgrwt>
<rscale>  0 0.51617474E+04</rscale>
<asrwt>0</asrwt>
<pdfrwt beam="1">  1        2 0.32116703E+00 0.51617474E+04</pdfrwt>
<pdfrwt beam="2">  1       -2 0.49088056E+00 0.51617474E+04</pdfrwt>
<totfact> 0.81290247E-03</totfact>
</mgrwt>
</event>
<event>
 8      1 +1.2359593e-08 4.91175800e+03 7.81860800e-03 7.84226500e-02
        2 -1    0    0  501    0 +0.0000000000e+00 +0.0000000000e+00 +2.0235572267e+03 2.0235572267e+03 2.5500000000e-03 0.0000e+00 1.0000e+00
       -2 -1    0    0    0  501 -0.0000000000e+00 -0.0000000000e+00 -2.9805638082e+03 2.9805638082e+03 2.5500000000e-03 0.0000e+00 -1.0000e+00
  1000011  2    1    2    0    0 +1.6558728161e+02 -5.8979899559e+02 +3.0611294987e+02 2.3520103089e+03 2.2501034092e+03 8.1641e+02 0.0000e+00
 -1000011  2    1    2    0    0 -1.6558728161e+02 +5.8979899559e+02 -1.2631195314e+03 2.6521107260e+03 2.2500974089e+03 1.6332e+03 0.0000e+00
       11  1    3    3    0    0 -1.7416223036e-02 -9.6607852964e-02 +9.0841310003e-02 1.3374904357e-01 5.1100000000e-04 0.0000e+00 1.0000e+00
  1000022  1    3    3    0    0 +1.6560469784e+02 -5.8970238774e+02 +3.0602210856e+02 2.3518765599e+03 2.2500000000e+03 0.0000e+00 0.0000e+00
      -11  1    4    4    0    0 -5.5643486432e-02 +7.9107154287e-02 -1.4065138542e-01 1.7069625788e-01 5.1100000000e-04 0.0000e+00 -1.0000e+00
  1000022  1    4    4    0    0 -1.6553163813e+02 +5.8971988844e+02 -1.2629788800e+03 2.6519400297e+03 2.2500000000e+03 0.0000e+00 0.0000e+00
<mgrwt>
<rscale>  0 0.49117579E+04</rscale>
<asrwt>0</asrwt>
<pdfrwt beam="1">  1        2 0.31131650E+00 0.49117579E+04</pdfrwt>
<pdfrwt beam="2">  1       -2 0.45854828E+00 0.49117579E+04</pdfrwt>
<totfact> 0.14529422E-02</totfact>
</mgrwt>
</event>
<event>
 8      1 +1.2359593e-08 4.72706100e+03 7.81860800e-03 7.87204800e-02
        2 -1    0    0  501    0 +0.0000000000e+00 +0.0000000000e+00 +4.7302946232e+03 4.7302946232e+03 2.5500000000e-03 0.0000e+00 1.0000e+00
       -2 -1    0    0    0  501 -0.0000000000e+00 -0.0000000000e+00 -1.1809573615e+03 1.1809573615e+03 2.5500000000e-03 0.0000e+00 -1.0000e+00
  1000011  2    1    2    0    0 +5.8346952426e+02 +4.1475838181e+02 +1.9050363784e+03 3.0339046084e+03 2.2501005242e+03 3.5218e+02 0.0000e+00
 -1000011  2    1    2    0    0 -5.8346952426e+02 -4.1475838181e+02 +1.6443008833e+03 2.8773473763e+03 2.2500980708e+03 1.2640e+03 0.0000e+00
       11  1    3    3    0    0 +6.6901672146e-02 +9.4641119920e-02 +1.7665178991e-01 2.1127917745e-01 5.1100000000e-04 0.0000e+00 1.0000e+00
  1000022  1    3    3    0    0 +5.8340262259e+02 +4.1466374069e+02 +1.9048597266e+03 3.0336933293e+03 2.2500000000e+03 0.0000e+00 0.0000e+00
      -11  1    4    4    0    0 +8.7356050700e-03 -1.0915506688e-01 +9.4659869053e-02 1.4474767988e-01 5.1100000000e-04 0.0000e+00 -1.0000e+00
  1000022  1    4    4    0    0 -5.8347825987e+02 -4.1464922675e+02 +1.6442062234e+03 2.8772026286e+03 2.2500000000e+03 0.0000e+00 0.0000e+00
<mgrwt>
<rscale>  0 0.47270609E+04</rscale>
<asrwt>0</asrwt>
<pdfrwt beam="1">  1        2 0.72773764E+00 0.47270609E+04</pdfrwt>
<pdfrwt beam="2">  1       -2 0.18168575E+00 0.47270609E+04</pdfrwt>
<totfact> 0.92322898E-03</totfact>
</mgrwt>
</event>
<event>
 8      1 +1.2359593e-08 5.58936300e+03 7.81860800e-03 7.74351100e-02
        1 -1    0    0  501    0 +0.0000000000e+00 +0.0000000000e+00 +5.2358941920e+03 5.2358941920e+03 5.0400000000e-03 0.0000e+00 1.0000e+00
       -1 -1    0    0    0  501 -0.0000000000e+00 -0.0000000000e+00 -1.4916737263e+03 1.4916737263e+03 5.0400000000e-03 0.0000e+00 -1.0000e+00
  1000011  2    1    2    0    0 -4.4712639438e+02 +1.3982362534e+03 +2.7984474992e+03 3.8793352575e+03 2.2500993315e+03 3.7508e+02 0.0000e+00
 -1000011  2    1    2    0    0 +4.4712639438e+02 -1.3982362534e+03 +9.4577296650e+02 2.8482326608e+03 2.2501013650e+03 5.3643e+02 0.0000e+00
       11  1    3    3    0    0 -2.6987472530e-02 +2.7986632741e-02 +2.4305074421e-01 2.4614122037e-01 5.1100000000e-04 0.0000e+00 1.0000e+00
  1000022  1    3    3    0    0 -4.4709940691e+02 +1.3982082668e+03 +2.7982044484e+03 3.8790891163e+03 2.2500000000e+03 0.0000e+00 0.0000e+00
      -11  1    4    4    0    0 +1.9878034397e-02 -1.2696265815e-01 -3.6187834759e-02 1.3350832561e-01 5.1100000000e-04 0.0000e+00 -1.0000e+00
  1000022  1    4    4    0    0 +4.4710651634e+02 -1.3981092907e+03 +9.4580915434e+02 2.8480991525e+03 2.2500000000e+03 0.0000e+00 0.0000e+00
<mgrwt>
<rscale>  0 0.55893634E+04</rscale>
<asrwt>0</asrwt>
<pdfrwt beam="1">  1        1 0.80552221E+00 0.55893634E+04</pdfrwt>
<pdfrwt beam="2">  1       -1 0.22948826E+00 0.55893634E+04</pdfrwt>
<totfact> 0.26295508E-04</totfact>
</mgrwt>
</event>
<event>
 8      1 +1.2359593e-08 5.17051400e+03 7.81860800e-03 7.80272900e-02
       -2 -1    0    0    0  501 -0.0000000000e+00 +0.0000000000e+00 +3.6851836681e+03 3.6851836681e+03 2.5500000000e-03 0.0000e+00 -1.0000e+00
        2 -1    0    0  501    0 +0.0000000000e+00 -0.0000000000e+00 -1.8136285678e+03 1.8136285678e+03 2.5500000000e-03 0.0000e+00 1.0000e+00
  1000011  2    1    2    0    0 -1.1562223073e+03 +2.8158674597e+02 +1.4166573397e+03 2.9130766309e+03 2.2501014021e+03 1.1766e+02 0.0000e+00
 -1000011  2    1    2    0    0 +1.1562223073e+03 -2.8158674597e+02 +4.5489776053e+02 2.5857356050e+03 2.2501012260e+03 3.3100e+02 0.0000e+00
       11  1    3    3    0    0 -9.9033973159e-02 +8.9807777377e-02 +1.4337691593e-01 1.9603664320e-01 5.1100000000e-04 0.0000e+00 1.0000e+00
  1000022  1    3    3    0    0 -1.1561232733e+03 +2.8149693819e+02 +1.4165139628e+03 2.9128805942e+03 2.2500000000e+03 0.0000e+00 0.0000e+00
      -11  1    4    4    0    0 +3.0188142759e-02 +6.4438728116e-02 +8.2722618620e-02 1.0911904367e-01 5.1100000000e-04 0.0000e+00 -1.0000e+00
  1000022  1    4    4    0    0 +1.1561921192e+03 -2.8165118470e+02 +4.5481503791e+02 2.5856264860e+03 2.2500000000e+03 0.0000e+00 0.0000e+00
<mgrwt>
<rscale>  0 0.51705142E+04</rscale>
<asrwt>0</asrwt>
<pdfrwt beam="1">  1        2 0.27901978E+00 0.51705142E+04</pdfrwt>
<pdfrwt beam="2">  1       -2 0.56695133E+00 0.51705142E+04</pdfrwt>
<totfact> 0.43425075E-03</totfact>
</mgrwt>
</event>
<event>
 8      1 +1.2359593e-08 4.70238700e+03 7.81860800e-03 7.87613200e-02
        2 -1    0    0  501    0 +0.0000000000e+00 +0.0000000000e+00 +3.1025679497e+03 3.1025679497e+03 2.5500000000e-03 0.0000e+00 1.0000e+00
       -2 -1    0    0    0  501 -0.0000000000e+00 -0.0000000000e+00 -1.7817859384e+03 1.7817859384e+03 2.5500000000e-03 0.0000e+00 -1.0000e+00
  1000011  2    1    2    0    0 -1.9199164829e+02 +1.4293431498e+02 -2.9713337357e+00 2.2627968488e+03 2.2500999397e+03 1.3408e+02 0.0000e+00
 -1000011  2    1    2    0    0 +1.9199164829e+02 -1.4293431498e+02 +1.3237533451e+03 2.6215570394e+03 2.2500994157e+03 1.6203e+02 0.0000e+00
       11  1    3    3    0    0 -1.0430441121e-02 -2.7524031309e-02 +9.3892980094e-02 9.8399790861e-02 5.1100000000e-04 0.0000e+00 1.0000e+00
  1000022  1    3    3    0    0 -1.9198121785e+02 +1.4296183901e+02 -3.0652267158e+00 2.2626984490e+03 2.2500000000e+03 0.0000e+00 0.0000e+00
      -11  1    4    4    0    0 +6.6051651959e-02 -6.2148802124e-02 -5.3485367001e-03 9.0852416802e-02 5.1100000000e-04 0.0000e+00 -1.0000e+00
  1000022  1    4    4    0    0 +1.9192559663e+02 -1.4287216618e+02 +1.3237586936e+03 2.6214661870e+03 2.2500000000e+03 0.0000e+00 0.0000e+00
<mgrwt>
<rscale>  0 0.47023875E+04</rscale>
<asrwt>0</asrwt>
<pdfrwt beam="1">  1        2 0.47731814E+00 0.47023875E+04</pdfrwt>
<pdfrwt beam="2">  1       -2 0.27412092E+00 0.47023875E+04</pdfrwt>
<totfact> 0.51076648E-02</totfact>
</mgrwt>
</event>
<event>
 8      1 +1.2359593e-08 5.14976100e+03 7.81860800e-03 7.80581200e-02
        2 -1    0    0  501    0 +0.0000000000e+00 +0.0000000000e+00 +3.9203804928e+03 3.9203804928e+03 2.5500000000e-03 0.0000e+00 1.0000e+00
       -2 -1    0    0    0  501 -0.0000000000e+00 -0.0000000000e+00 -1.6911644981e+03 1.6911644981e+03 2.5500000000e-03 0.0000e+00 -1.0000e+00
  1000011  2    1    2    0    0 -3.4252308347e+02 -9.5039119951e+02 +3.0908226783e+02 2.4857690848e+03 2.2501001311e+03 3.6079e+03 0.0000e+00
 -1000011  2    1    2    0    0 +3.4252308347e+02 +9.5039119951e+02 +1.9201337268e+03 3.1257759061e+03 2.2501102176e+03 2.4385e+02 0.0000e+00
       11  1    3    3    0    0 +4.5116248923e-03 -9.0968222886e-02 +1.0317059158e-01 1.3762268801e-01 5.1100000000e-04 0.0000e+00 1.0000e+00
  1000022  1    3    3    0    0 -3.4252759510e+02 -9.5030023129e+02 +3.0897909724e+02 2.4856314621e+03 2.2500000000e+03 0.0000e+00 0.0000e+00
      -11  1    4    4    0    0 +8.2848140903e-03 +1.6506415522e-01 +1.2491757932e-01 2.0717016195e-01 5.1100000000e-04 0.0000e+00 -1.0000e+00
  1000022  1    4    4    0    0 +3.4251479866e+02 +9.5022613536e+02 +1.9200088092e+03 3.1255687359e+03 2.2500000000e+03 0.0000e+00 0.0000e+00
<mgrwt>
<rscale>  0 0.51497605E+04</rscale>
<asrwt>0</asrwt>
<pdfrwt beam="1">  1        2 0.60313545E+00 0.51497605E+04</pdfrwt>
<pdfrwt beam="2">  1       -2 0.26017916E+00 0.51497605E+04</pdfrwt>
<totfact> 0.15794738E-02</totfact>
</mgrwt>
</event>
<event>
 8      1 +1.2359593e-08 4.74888600e+03 7.81860800e-03 7.86845600e-02
       -2 -1    0    0    0  501 -0.0000000000e+00 +0.0000000000e+00 +2.2858206892e+03 2.2858206892e+03 2.5500000000e-03 0.0000e+00 -1.0000e+00
        2 -1    0    0  501    0 +0.0000000000e+00 -0.0000000000e+00 -2.4665010037e+03 2.4665010037e+03 2.5500000000e-03 0.0000e+00 1.0000e+00
  1000011  2    1    2    0    0 -2.3828472512e+02 +1.0667246356e+02 -8.0280267404e+02 2.4032480994e+03 2.2501001465e+03 7.8257e+00 0.0000e+00
 -1000011  2    1    2    0    0 +2.3828472512e+02 -1.0667246356e+02 +6.2212235949e+02 2.3490735935e+03 2.2501004184e+03 3.7276e+02 0.0000e+00
       11  1    3    3    0    0 -2.0075457798e-02 -9.3703097452e-02 -1.7344758349e-02 9.7387861245e-02 5.1100000000e-04 0.0000e+00 1.0000e+00
  1000022  1    3    3    0    0 -2.3826464966e+02 +1.0676616666e+02 -8.0278532929e+02 2.4031507116e+03 2.2500000000e+03 0.0000e+00 0.0000e+00
      -11  1    4    4    0    0 +7.1677396690e-02 -2.6594192337e-03 +1.1241318495e-01 1.3334806589e-01 5.1100000000e-04 0.0000e+00 -1.0000e+00
  1000022  1    4    4    0    0 +2.3821304772e+02 -1.0666980414e+02 +6.2200994630e+02 2.3489402454e+03 2.2500000000e+03 0.0000e+00 0.0000e+00
<mgrwt>
<rscale>  0 0.47488858E+04</rscale>
<asrwt>0</asrwt>
<pdfrwt beam="1">  1        2 0.37946169E+00 0.47488858E+04</pdfrwt>
<pdfrwt beam="2">  1       -2 0.35166472E+00 0.47488858E+04</pdfrwt>
<totfact> 0.41057020E-02</totfact>
</mgrwt>
</event>
<event>
 8      1 +1.2359593e-08 4.66769900e+03 7.81860800e-03 7.88191800e-02
       -2 -1    0    0    0  501 -0.0000000000e+00 +0.0000000000e+00 +2.1690473082e+03 2.1690473082e+03 2.5500000000e-03 0.0000e+00 -1.0000e+00
        2 -1    0    0  501    0 +0.0000000000e+00 -0.0000000000e+00 -2.5111735556e+03 2.5111735556e+03 2.5500000000e-03 0.0000e+00 1.0000e+00
  1000011  2    1    2    0    0 -5.9996917078e+02 -1.3740790153e+02 -2.4231192511e+02 2.3453185031e+03 2.2501021921e+03 5.1293e+01 0.0000e+00
 -1000011  2    1    2    0    0 +5.9996917078e+02 +1.3740790153e+02 -9.9814322277e+01 2.3349023607e+03 2.2501027083e+03 9.8001e+01 0.0000e+00
       11  1    3    3    0    0 -8.0649339062e-02 +5.6964852314e-02 -7.3167297059e-02 1.2289436292e-01 5.1100000000e-04 0.0000e+00 1.0000e+00
  1000022  1    3    3    0    0 -5.9988852144e+02 -1.3746486639e+02 -2.4223875781e+02 2.3451956088e+03 2.2500000000e+03 0.0000e+00 0.0000e+00
      -11  1    4    4    0    0 +2.2609233490e-02 +1.2928440495e-02 +9.7954226833e-02 1.0135883308e-01 5.1100000000e-04 0.0000e+00 -1.0000e+00
  1000022  1    4    4    0    0 +5.9994656155e+02 +1.3739497309e+02 -9.9912276504e+01 2.3348010019e+03 2.2500000000e+03 0.0000e+00 0.0000e+00
<mgrwt>
<rscale>  0 0.46676993E+04</rscale>
<asrwt>0</asrwt>
<pdfrwt beam="1">  1        2 0.38633439E+00 0.46676993E+04</pdfrwt>
<pdfrwt beam="2">  1       -2 0.33369958E+00 0.46676993E+04</pdfrwt>
<totfact> 0.50469087E-02</totfact>
</mgrwt>
</event>
<event>
 8      1 +1.2359593e-08 5.00223000e+03 7.81860800e-03 7.82816300e-02
       -2 -1    0    0    0  501 -0.0000000000e+00 +0.0000000000e+00 +2.1223776100e+03 2.1223776100e+03 2.5500000000e-03 0.0000e+00 -1.0000e+00
        2 -1    0    0  501    0 +0.0000000000e+00 -0.0000000000e+00 -2.9474383747e+03 2.9474383748e+03 2.5500000000e-03 0.0000e+00 1.0000e+00
  1000011  2    1    2    0    0 -7.1259375265e+02 +3.9099170358e+02 +3.2668700139e+02 2.4146092794e+03 2.2500998214e+03 2.9721e+02 0.0000e+00
 -1000011  2    1    2    0    0 +7.1259375265e+02 -3.9099170358e+02 -1.1517477661e+03 2.6552067054e+03 2.2500967453e+03 2.2817e+03 0.0000e+00
       11  1    3    3    0    0 -8.3876962510e-03 +1.0783143639e-01 -2.0800918772e-02 1.1014041623e-01 5.1100000000e-04 0.0000e+00 1.0000e+00
  1000022  1    3    3    0    0 -7.1258536496e+02 +3.9088387214e+02 +3.2670780231e+02 2.4144991389e+03 2.2500000000e+03 0.0000e+00 0.0000e+00
      -11  1    4    4    0    0 -2.6135942595e-02 -4.3037499237e-02 +3.9665041379e-02 6.4100627034e-02 5.1100000000e-04 0.0000e+00 -1.0000e+00
  1000022  1    4    4    0    0 +7.1261988859e+02 -3.9094866608e+02 -1.1517874312e+03 2.6551426048e+03 2.2500000000e+03 0.0000e+00 0.0000e+00
<mgrwt>
<rscale>  0 0.50022304E+04</rscale>
<asrwt>0</asrwt>
<pdfrwt beam="1">  1        2 0.45345206E+00 0.50022304E+04</pdfrwt>
<pdfrwt beam="2">  1       -2 0.32651963E+00 0.50022304E+04</pdfrwt>
<totfact> 0.29810674E-02</totfact>
</mgrwt>
</event>
<event>
 8      1 +1.2359593e-08 4.56400600e+03 7.81860800e-03 7.89952600e-02
       -2 -1    0    0    0  501 -0.0000000000e+00 +0.0000000000e+00 +2.8468314522e+03 2.8468314522e+03 2.5500000000e-03 0.0000e+00 -1.0000e+00
        2 -1    0    0  501    0 +0.0000000000e+00 -0.0000000000e+00 -1.8292395128e+03 1.8292395128e+03 2.5500000000e-03 0.0000e+00 1.0000e+00
  1000011  2    1    2    0    0 +1.8618518950e+02 -2.9717955551e+02 +6.5943639061e+02 2.3708141540e+03 2.2500939506e+03 6.5994e+02 0.0000e+00
 -1000011  2    1    2    0    0 -1.8618518950e+02 +2.9717955551e+02 +3.5815554878e+02 2.3052568110e+03 2.2501006543e+03 6.1124e+02 0.0000e+00
       11  1    3    3    0    0 +5.9854275982e-02 +6.6489928569e-03 -5.0922737906e-02 7.8867797465e-02 5.1100000000e-04 0.0000e+00 1.0000e+00
  1000022  1    3    3    0    0 +1.8612533522e+02 -2.9718620450e+02 +6.5948731335e+02 2.3707352862e+03 2.2500000000e+03 0.0000e+00 0.0000e+00
      -11  1    4    4    0    0 -9.1241255916e-02 -1.3751704792e-02 -3.4437136576e-02 9.8489864925e-02 5.1100000000e-04 0.0000e+00 -1.0000e+00
  1000022  1    4    4    0    0 -1.8609394824e+02 +2.9719330721e+02 +3.5818998592e+02 2.3051583211e+03 2.2500000000e+03 0.0000e+00 0.0000e+00
<mgrwt>
<rscale>  0 0.45640055E+04</rscale>
<asrwt>0</asrwt>
<pdfrwt beam="1">  1        2 0.28142147E+00 0.45640055E+04</pdfrwt>
<pdfrwt beam="2">  1       -2 0.43797407E+00 0.45640055E+04</pdfrwt>
<totfact> 0.26150565E-02</totfact>
</mgrwt>
</event>
<event>
 8      1 +1.2359593e-08 4.67227400e+03 7.81860800e-03 7.88115200e-02
        2 -1    0    0  501    0 +0.0000000000e+00 +0.0000000000e+00 +3.1496979776e+03 3.1496979776e+03 2.5500000000e-03 0.0000e+00 1.0000e+00
       -2 -1    0    0    0  501 -0.0000000000e+00 -0.0000000000e+00 -1.7327175757e+03 1.7327175757e+03 2.5500000000e-03 0.0000e+00 -1.0000e+00
  1000011  2    1    2    0    0 -2.2758207163e+02 +2.3544778522e+02 +1.2686445203e+03 2.6037754400e+03 2.2501018565e+03 2.3979e+02 0.0000e+00
 -1000011  2    1    2    0    0 +2.2758207163e+02 -2.3544778522e+02 +1.4833588170e+02 2.2786401132e+03 2.2501039916e+03 1.4773e+03 0.0000e+00
       11  1    3    3    0    0 +5.2318509728e-02 +4.9832248660e-04 +1.4497451496e-01 1.5412769323e-01 5.1100000000e-04 0.0000e+00 1.0000e+00
  1000022  1    3    3    0    0 -2.2763439014e+02 +2.3544728689e+02 +1.2684995458e+03 2.6036213123e+03 2.2500000000e+03 0.0000e+00 0.0000e+00
      -11  1    4    4    0    0 -2.8154893756e-02 +3.6313539332e-02 -7.8555571235e-02 9.1008846112e-02 5.1100000000e-04 0.0000e+00 -1.0000e+00
  1000022  1    4    4    0    0 +2.2761022653e+02 -2.3548409876e+02 +1.4841443727e+02 2.2785491044e+03 2.2500000000e+03 0.0000e+00 0.0000e+00
<mgrwt>
<rscale>  0 0.46722744E+04</rscale>
<asrwt>0</asrwt>
<pdfrwt beam="1">  1        2 0.48456891E+00 0.46722744E+04</pdfrwt>
<pdfrwt beam="2">  1       -2 0.26657194E+00 0.46722744E+04</pdfrwt>
<totfact> 0.53092244E-02</totfact>
</mgrwt>
</event>
<event>
 8      1 +1.2359593e-08 4.59701700e+03 7.81860800e-03 7.89386900e-02
        2 -1    0    0  501    0 +0.0000000000e+00 +0.0000000000e+00 +2.2526638618e+03 2.2526638618e+03 2.5500000000e-03 0.0000e+00 1.0000e+00
       -2 -1    0    0    0  501 -0.0000000000e+00 -0.0000000000e+00 -2.3452861690e+03 2.3452861690e+03 2.5500000000e-03 0.0000e+00 -1.0000e+00
  1000011  2    1    2    0    0 +4.0615485682e+02 -1.3698783042e+02 -2.3725319864e+02 2.3028269557e+03 2.2501101027e+03 6.7433e+00 0.0000e+00
 -1000011  2    1    2    0    0 -4.0615485682e+02 +1.3698783042e+02 +1.4463089139e+02 2.2951230751e+03 2.2500987537e+03 9.8007e+01 0.0000e+00
       11  1    3    3    0    0 -8.0489537043e-02 +3.0497761020e-02 +2.3288067364e-02 8.9169916085e-02 5.1100000000e-04 0.0000e+00 1.0000e+00
  1000022  1    3    3    0    0 +4.0623534636e+02 -1.3701832818e+02 -2.3727648671e+02 2.3027377858e+03 2.2500000000e+03 0.0000e+00 0.0000e+00
      -11  1    4    4    0    0 -1.0603619333e-01 -3.9926954410e-02 +1.2299127803e-02 1.1397089669e-01 5.1100000000e-04 0.0000e+00 -1.0000e+00
  1000022  1    4    4    0    0 -4.0604882063e+02 +1.3702775737e+02 +1.4461859227e+02 2.2950091042e+03 2.2500000000e+03 0.0000e+00 0.0000e+00
<mgrwt>
<rscale>  0 0.45970170E+04</rscale>
<asrwt>0</asrwt>
<pdfrwt beam="1">  1        2 0.34656367E+00 0.45970170E+04</pdfrwt>
<pdfrwt beam="2">  1       -2 0.36081325E+00 0.45970170E+04</pdfrwt>
<totfact> 0.48177666E-02</totfact>
</mgrwt>
</event>
<event>
 8      1 +1.2359593e-08 6.30203600e+03 7.81860800e-03 7.65404100e-02
       -2 -1    0    0    0  501 -0.0000000000e+00 +0.0000000000e+00 +2.4142537169e+03 2.4142537169e+03 2.5500000000e-03 0.0000e+00 -1.0000e+00
        2 -1    0    0  501    0 +0.0000000000e+00 -0.0000000000e+00 -4.1126231704e+03 4.1126231704e+03 2.5500000000e-03 0.0000e+00 1.0000e+00
  1000011  2    1    2    0    0 -1.2011610071e+03 -1.5948042315e+03 -1.8206143550e+03 3.5162153276e+03 2.2500989529e+03 1.7264e+02 0.0000e+00
 -1000011  2    1    2    0    0 +1.2011610071e+03 +1.5948042315e+03 +1.2224490158e+02 3.0106615597e+03 2.2501001998e+03 4.2123e+02 0.0000e+00
       11  1    3    3    0    0 -9.0700596913e-02 -3.1500513105e-02 -1.7386326669e-01 1.9861414157e-01 5.1100000000e-04 0.0000e+00 1.0000e+00
  1000022  1    3    3    0    0 -1.2010703065e+03 -1.5947727310e+03 -1.8204404918e+03 3.5160167134e+03 2.2500000000e+03 0.0000e+00 0.0000e+00
      -11  1    4    4    0    0 +8.0202770501e-02 +1.4139403367e-01 +8.9158831162e-02 1.8540311547e-01 5.1100000000e-04 0.0000e+00 -1.0000e+00
  1000022  1    4    4    0    0 +1.2010808044e+03 +1.5946628375e+03 +1.2215574275e+02 3.0104761566e+03 2.2500000000e+03 0.0000e+00 0.0000e+00
<mgrwt>
<rscale>  0 0.63020364E+04</rscale>
<asrwt>0</asrwt>
<pdfrwt beam="1">  1        2 0.63271126E+00 0.63020364E+04</pdfrwt>
<pdfrwt beam="2">  1       -2 0.37142365E+00 0.63020364E+04</pdfrwt>
<totfact> 0.20519053E-03</totfact>
</mgrwt>
</event>
<event>
 8      1 +1.2359593e-08 4.51844500e+03 7.81860800e-03 7.90741500e-02
        1 -1    0    0  501    0 +0.0000000000e+00 +0.0000000000e+00 +2.1542982061e+03 2.1542982061e+03 5.0400000000e-03 0.0000e+00 1.0000e+00
       -1 -1    0    0    0  501 -0.0000000000e+00 -0.0000000000e+00 -2.3692576159e+03 2.3692576159e+03 5.0400000000e-03 0.0000e+00 -1.0000e+00
  1000011  2    1    2    0    0 +4.8288671612e+01 -7.0124911012e+01 +7.6831399587e+01 2.2530193708e+03 2.2500986472e+03 2.7671e+01 0.0000e+00
 -1000011  2    1    2    0    0 -4.8288671612e+01 +7.0124911012e+01 -2.9179080938e+02 2.2705364512e+03 2.2500987980e+03 9.8548e+02 0.0000e+00
       11  1    3    3    0    0 +1.2623853308e-02 +3.5258031989e-02 +9.3674911809e-02 1.0088478729e-01 5.1100000000e-04 0.0000e+00 1.0000e+00
  1000022  1    3    3    0    0 +4.8276047758e+01 -7.0160169044e+01 +7.6737724675e+01 2.2529184860e+03 2.2500000000e+03 0.0000e+00 0.0000e+00
      -11  1    4    4    0    0 -5.7517450962e-02 +7.3414561819e-02 +2.9003488306e-02 9.7669944592e-02 5.1100000000e-04 0.0000e+00 -1.0000e+00
  1000022  1    4    4    0    0 -4.8231154161e+01 +7.0051496451e+01 -2.9181981287e+02 2.2704387813e+03 2.2500000000e+03 0.0000e+00 0.0000e+00
<mgrwt>
<rscale>  0 0.45184455E+04</rscale>
<asrwt>0</asrwt>
<pdfrwt beam="1">  1        1 0.33143049E+00 0.45184455E+04</pdfrwt>
<pdfrwt beam="2">  1       -1 0.36450117E+00 0.45184455E+04</pdfrwt>
<totfact> 0.21841180E-02</totfact>
</mgrwt>
</event>
<event>
 8      1 +1.2359593e-08 5.50050400e+03 7.81860800e-03 7.75562000e-02
       -1 -1    0    0    0  501 -0.0000000000e+00 +0.0000000000e+00 +3.5286869282e+03 3.5286869282e+03 5.0400000000e-03 0.0000e+00 -1.0000e+00
        1 -1    0    0  501    0 +0.0000000000e+00 -0.0000000000e+00 -2.1435413841e+03 2.1435413841e+03 5.0400000000e-03 0.0000e+00 1.0000e+00
  1000011  2    1    2    0    0 +8.8808119157e+02 -5.4024108986e+02 +1.9215820562e+03 3.1362350063e+03 2.2500986151e+03 1.5184e+03 0.0000e+00
 -1000011  2    1    2    0    0 -8.8808119157e+02 +5.4024108986e+02 -5.3643651210e+02 2.5359933061e+03 2.2500998375e+03 2.0299e+02 0.0000e+00
       11  1    3    3    0    0 +5.9782695360e-02 -1.2276554731e-01 +1.2923385451e-01 1.8800797859e-01 5.1100000000e-04 0.0000e+00 1.0000e+00
  1000022  1    3    3    0    0 +8.8802140887e+02 -5.4011832431e+02 +1.9214528224e+03 3.1360469983e+03 2.2500000000e+03 0.0000e+00 0.0000e+00
      -11  1    4    4    0    0 -5.0390116992e-03 +4.9174811619e-02 +7.0308717783e-02 8.5948417838e-02 5.1100000000e-04 0.0000e+00 -1.0000e+00
  1000022  1    4    4    0    0 -8.8807615256e+02 +5.4019191505e+02 -5.3650682082e+02 2.5359073577e+03 2.2500000000e+03 0.0000e+00 0.0000e+00
<mgrwt>
<rscale>  0 0.55005041E+04</rscale>
<asrwt>0</asrwt>
<pdfrwt beam="1">  1        1 0.32977560E+00 0.55005041E+04</pdfrwt>
<pdfrwt beam="2">  1       -1 0.54287491E+00 0.55005041E+04</pdfrwt>
<totfact> 0.13742375E-03</totfact>
</mgrwt>
</event>
<event>
 8      1 +1.2359593e-08 5.10453600e+03 7.81860800e-03 7.81258100e-02
        2 -1    0    0  501    0 +0.0000000000e+00 +0.0000000000e+00 +2.3619497466e+03 2.3619497466e+03 2.5500000000e-03 0.0000e+00 1.0000e+00
       -2 -1    0    0    0  501 -0.0000000000e+00 -0.0000000000e+00 -2.7579219638e+03 2.7579219638e+03 2.5500000000e-03 0.0000e+00 -1.0000e+00
  1000011  2    1    2    0    0 +4.5577747530e+02 -3.8710093650e+02 -1.2468478587e+03 2.6410578256e+03 2.2501059116e+03 8.2940e+02 0.0000e+00
 -1000011  2    1    2    0    0 -4.5577747530e+02 +3.8710093650e+02 +8.5087564145e+02 2.4788138848e+03 2.2500997036e+03 2.4290e+02 0.0000e+00
       11  1    3    3    0    0 -6.3668910117e-02 -8.1389588546e-03 -1.2242945550e-01 1.3823604805e-01 5.1100000000e-04 0.0000e+00 1.0000e+00
  1000022  1    3    3    0    0 +4.5584114421e+02 -3.8709279754e+02 -1.2467254292e+03 2.6409195895e+03 2.2500000000e+03 0.0000e+00 0.0000e+00
      -11  1    4    4    0    0 +6.3091744880e-02 +6.0428845844e-02 -2.7156267714e-03 8.7406229614e-02 5.1100000000e-04 0.0000e+00 -1.0000e+00
  1000022  1    4    4    0    0 -4.5584056705e+02 +3.8704050765e+02 +8.5087835708e+02 2.4787264786e+03 2.2500000000e+03 0.0000e+00 0.0000e+00
<mgrwt>
<rscale>  0 0.51045364E+04</rscale>
<asrwt>0</asrwt>
<pdfrwt beam="1">  1        2 0.36337688E+00 0.51045364E+04</pdfrwt>
<pdfrwt beam="2">  1       -2 0.42429569E+00 0.51045364E+04</pdfrwt>
<totfact> 0.15525671E-02</totfact>
</mgrwt>
</event>
<event>
 8      1 +1.2359593e-08 5.31539100e+03 7.81860800e-03 7.78161500e-02
        2 -1    0    0  501    0 +0.0000000000e+00 +0.0000000000e+00 +3.2635512470e+03 3.2635512470e+03 2.5500000000e-03 0.0000e+00 1.0000e+00
       -2 -1    0    0    0  501 -0.0000000000e+00 -0.0000000000e+00 -2.1643127221e+03 2.1643127221e+03 2.5500000000e-03 0.0000e+00 -1.0000e+00
  1000011  2    1    2    0    0 -4.8934082578e+02 -1.3875583404e+02 -7.9804084459e+02 2.4410061233e+03 2.2500964600e+03 1.2602e+03 0.0000e+00
 -1000011  2    1    2    0    0 +4.8934082578e+02 +1.3875583404e+02 +1.8972793695e+03 2.9868578457e+03 2.2500984778e+03 6.4282e+02 0.0000e+00
       11  1    3    3    0    0 -7.4567219980e-02 +6.5490550091e-02 +2.6299386100e-03 9.9279705329e-02 5.1100000000e-04 0.0000e+00 1.0000e+00
  1000022  1    3    3    0    0 -4.8926625856e+02 -1.3882132459e+02 -7.9804347452e+02 2.4409068436e+03 2.2500000000e+03 0.0000e+00 0.0000e+00
      -11  1    4    4    0    0 +3.4062489909e-02 +1.0037289364e-01 +1.2451545393e-01 1.6352165041e-01 5.1100000000e-04 0.0000e+00 -1.0000e+00
  1000022  1    4    4    0    0 +4.8930676329e+02 +1.3865546114e+02 +1.8971548540e+03 2.9866943241e+03 2.2500000000e+03 0.0000e+00 0.0000e+00
<mgrwt>
<rscale>  0 0.53153910E+04</rscale>
<asrwt>0</asrwt>
<pdfrwt beam="1">  1        2 0.50208480E+00 0.53153910E+04</pdfrwt>
<pdfrwt beam="2">  1       -2 0.33297119E+00 0.53153910E+04</pdfrwt>
<totfact> 0.16618619E-02</totfact>
</mgrwt>
</event>
<event>
 8      1 +1.2359593e-08 4.61428800e+03 7.81860800e-03 7.89092800e-02
       -2 -1    0    0    0  501 -0.0000000000e+00 +0.0000000000e+00 +2.2287772658e+03 2.2287772658e+03 2.5500000000e-03 0.0000e+00 -1.0000e+00
        2 -1    0    0  501    0 +0.0000000000e+00 -0.0000000000e+00 -2.3882665557e+03 2.3882665557e+03 2.5500000000e-03 0.0000e+00 1.0000e+00
  1000011  2    1    2    0    0 -3.0315282049e+02 -3.4210731262e+02 -3.0576911598e+02 2.3163299569e+03 2.2501001469e+03 3.2010e+03 0.0000e+00
 -1000011  2    1    2    0    0 +3.0315282049e+02 +3.4210731262e+02 +1.4627982607e+02 2.3007138647e+03 2.2500994320e+03 2.2601e+02 0.0000e+00
       11  1    3    3    0    0 +7.6243643387e-02 -5.4591130544e-02 -3.4503610275e-02 9.9920190446e-02 5.1100000000e-04 0.0000e+00 1.0000e+00
  1000022  1    3    3    0    0 -3.0322906413e+02 -3.4205272149e+02 -3.0573461237e+02 2.3162300367e+03 2.2500000000e+03 0.0000e+00 0.0000e+00
      -11  1    4    4    0    0 +7.3986284432e-02 +5.1914975467e-02 -6.3831991203e-02 1.1065224246e-01 5.1100000000e-04 0.0000e+00 -1.0000e+00
  1000022  1    4    4    0    0 +3.0307883420e+02 +3.4205539765e+02 +1.4634365806e+02 2.3006032124e+03 2.2500000000e+03 0.0000e+00 0.0000e+00
<mgrwt>
<rscale>  0 0.46142883E+04</rscale>
<asrwt>0</asrwt>
<pdfrwt beam="1">  1        2 0.36742562E+00 0.46142883E+04</pdfrwt>
<pdfrwt beam="2">  1       -2 0.34288881E+00 0.46142883E+04</pdfrwt>
<totfact> 0.52278182E-02</totfact>
</mgrwt>
</event>
<event>
 8      1 +1.2359593e-08 5.26340800e+03 7.81860800e-03 7.78911100e-02
       -2 -1    0    0    0  501 -0.0000000000e+00 +0.0000000000e+00 +2.3579654385e+03 2.3579654385e+03 2.5500000000e-03 0.0000e+00 -1.0000e+00
        2 -1    0    0  501    0 +0.0000000000e+00 -0.0000000000e+00 -2.9372208669e+03 2.9372208669e+03 2.5500000000e-03 0.0000e+00 1.0000e+00
  1000011  2    1    2    0    0 +1.1007564608e+03 +6.1754962251e+02 -8.1229124703e+02 2.7047737167e+03 2.2501003236e+03 1.2805e+03 0.0000e+00
 -1000011  2    1    2    0    0 -1.1007564608e+03 -6.1754962251e+02 +2.3303581862e+02 2.5904125887e+03 2.2500887460e+03 1.1343e+03 0.0000e+00
       11  1    3    3    0    0 +7.3319435035e-02 +1.7229514617e-02 -1.4051645464e-01 1.5942939004e-01 5.1100000000e-04 0.0000e+00 1.0000e+00
  1000022  1    3    3    0    0 +1.1006831413e+03 +6.1753239300e+02 -8.1215073057e+02 2.7046142873e+03 2.2500000000e+03 0.0000e+00 0.0000e+00
      -11  1    4    4    0    0 -1.1558436718e-01 -9.0887748782e-02 +3.4059265329e-02 1.5093251268e-01 5.1100000000e-04 0.0000e+00 -1.0000e+00
  1000022  1    4    4    0    0 -1.1006408764e+03 -6.1745873476e+02 +2.3300175936e+02 2.5902616562e+03 2.2500000000e+03 0.0000e+00 0.0000e+00
<mgrwt>
<rscale>  0 0.52634078E+04</rscale>
<asrwt>0</asrwt>
<pdfrwt beam="1">  1        2 0.45188013E+00 0.52634078E+04</pdfrwt>
<pdfrwt beam="2">  1       -2 0.36276391E+00 0.52634078E+04</pdfrwt>
<totfact> 0.17541691E-02</totfact>
</mgrwt>
</event>
<event>
 8      1 +1.2359593e-08 4.71992200e+03 7.81860800e-03 7.87322700e-02
       -2 -1    0    0    0  501 -0.0000000000e+00 +0.0000000000e+00 +2.9511898201e+03 2.9511898201e+03 2.5500000000e-03 0.0000e+00 -1.0000e+00
        2 -1    0    0  501    0 +0.0000000000e+00 -0.0000000000e+00 -1.8871764193e+03 1.8871764193e+03 2.5500000000e-03 0.0000e+00 1.0000e+00
  1000011  2    1    2    0    0 -4.7164444472e+02 -2.2938297756e+02 +1.0250429322e+03 2.5275923503e+03 2.2500988965e+03 3.4081e+03 0.0000e+00
 -1000011  2    1    2    0    0 +4.7164444472e+02 +2.2938297756e+02 +3.8970468594e+01 2.3107738891e+03 2.2501316043e+03 1.3226e+03 0.0000e+00
       11  1    3    3    0    0 -7.3395406204e-02 +5.7781279586e-03 -4.1347382295e-02 8.4440153294e-02 5.1100000000e-04 0.0000e+00 1.0000e+00
  1000022  1    3    3    0    0 -4.7157104931e+02 -2.2938875569e+02 +1.0250842795e+03 2.5275079102e+03 2.2500000000e+03 0.0000e+00 0.0000e+00
      -11  1    4    4    0    0 +1.3267408158e-01 -5.6429175656e-02 +4.2617966782e-02 1.5034365889e-01 5.1100000000e-04 0.0000e+00 -1.0000e+00
  1000022  1    4    4    0    0 +4.7151177064e+02 +2.2943940674e+02 +3.8927850628e+01 2.3106235454e+03 2.2500000000e+03 0.0000e+00 0.0000e+00
<mgrwt>
<rscale>  0 0.47199220E+04</rscale>
<asrwt>0</asrwt>
<pdfrwt beam="1">  1        2 0.29033483E+00 0.47199220E+04</pdfrwt>
<pdfrwt beam="2">  1       -2 0.45402920E+00 0.47199220E+04</pdfrwt>
<totfact> 0.18797719E-02</totfact>
</mgrwt>
</event>
<event>
 8      1 +1.2359593e-08 5.24863800e+03 7.81860800e-03 7.79125700e-02
        2 -1    0    0  501    0 +0.0000000000e+00 +0.0000000000e+00 +2.4258106575e+03 2.4258106575e+03 2.5500000000e-03 0.0000e+00 1.0000e+00
       -2 -1    0    0    0  501 -0.0000000000e+00 -0.0000000000e+00 -2.8390714283e+03 2.8390714283e+03 2.5500000000e-03 0.0000e+00 -1.0000e+00
  1000011  2    1    2    0    0 +1.0503223176e+03 +8.4132818489e+02 -9.1848498208e+01 2.6234313515e+03 2.2500990697e+03 1.5323e+03 0.0000e+00
 -1000011  2    1    2    0    0 -1.0503223176e+03 -8.4132818489e+02 -3.2141227260e+02 2.6414507344e+03 2.2500991195e+03 2.8645e+02 0.0000e+00
       11  1    3    3    0    0 -1.1840200070e-02 -5.9206864169e-02 -1.2605199064e-02 6.1683017508e-02 5.1100000000e-04 0.0000e+00 1.0000e+00
  1000022  1    3    3    0    0 +1.0503341578e+03 +8.4138739175e+02 -9.1835893009e+01 2.6233696684e+03 2.2500000000e+03 0.0000e+00 0.0000e+00
      -11  1    4    4    0    0 -4.0913168947e-02 -2.0679901782e-02 -1.1187022905e-01 1.2089977083e-01 5.1100000000e-04 0.0000e+00 -1.0000e+00
  1000022  1    4    4    0    0 -1.0502814045e+03 -8.4130750499e+02 -3.2130040237e+02 2.6413298346e+03 2.2500000000e+03 0.0000e+00 0.0000e+00
<mgrwt>
<rscale>  0 0.52486378E+04</rscale>
<asrwt>0</asrwt>
<pdfrwt beam="1">  1        2 0.37320164E+00 0.52486378E+04</pdfrwt>
<pdfrwt beam="2">  1       -2 0.43678022E+00 0.52486378E+04</pdfrwt>
<totfact> 0.11673933E-02</totfact>
</mgrwt>
</event>
<event>
 8      1 +1.2359593e-08 5.45281600e+03 7.81860800e-03 7.76221500e-02
        2 -1    0    0  501    0 +0.0000000000e+00 +0.0000000000e+00 +2.8684021941e+03 2.8684021941e+03 2.5500000000e-03 0.0000e+00 1.0000e+00
       -2 -1    0    0    0  501 -0.0000000000e+00 -0.0000000000e+00 -2.5914428589e+03 2.5914428589e+03 2.5500000000e-03 0.0000e+00 -1.0000e+00
  1000011  2    1    2    0    0 +9.0411087767e+02 -1.2429709051e+03 +4.9172559231e+01 2.7253909499e+03 2.2500988287e+03 5.7076e+02 0.0000e+00
 -1000011  2    1    2    0    0 -9.0411087767e+02 +1.2429709051e+03 +2.2778677596e+02 2.7344541032e+03 2.2501020593e+03 1.8023e+02 0.0000e+00
       11  1    3    3    0    0 +1.0658288701e-01 +1.2815380737e-02 +3.0712018336e-02 1.1165856241e-01 5.1100000000e-04 0.0000e+00 1.0000e+00
  1000022  1    3    3    0    0 +9.0400429479e+02 -1.2429837205e+03 +4.9141847212e+01 2.7252792913e+03 2.2500000000e+03 0.0000e+00 0.0000e+00
      -11  1    4    4    0    0 +4.0262024706e-02 +1.1807152228e-01 +8.0122499674e-03 1.2500548785e-01 5.1100000000e-04 0.0000e+00 -1.0000e+00
  1000022  1    4    4    0    0 -9.0415113970e+02 +1.2428528336e+03 +2.2777876371e+02 2.7343290977e+03 2.2500000000e+03 0.0000e+00 0.0000e+00
<mgrwt>
<rscale>  0 0.54528159E+04</rscale>
<asrwt>0</asrwt>
<pdfrwt beam="1">  1        2 0.44129265E+00 0.54528159E+04</pdfrwt>
<pdfrwt beam="2">  1       -2 0.39868352E+00 0.54528159E+04</pdfrwt>
<totfact> 0.11180710E-02</totfact>
</mgrwt>
</event>
<event>
 8      1 +1.2359593e-08 4.70162700e+03 7.81860800e-03 7.87625800e-02
        2 -1    0    0  501    0 +0.0000000000e+00 +0.0000000000e+00 +1.7406952952e+03 1.7406952952e+03 2.5500000000e-03 0.0000e+00 1.0000e+00
       -2 -1    0    0    0  501 -0.0000000000e+00 -0.0000000000e+00 -3.1747793509e+03 3.1747793509e+03 2.5500000000e-03 0.0000e+00 -1.0000e+00
  1000011  2    1    2    0    0 +1.3264179615e+02 +4.3952979236e+02 -1.9161647997e+02 2.3044456484e+03 2.2501050168e+03 1.2365e+02 0.0000e+00
 -1000011  2    1    2    0    0 -1.3264179615e+02 -4.3952979236e+02 -1.2424675758e+03 2.6110289977e+03 2.2501036566e+03 1.2505e+03 0.0000e+00
       11  1    3    3    0    0 -1.6553519201e-02 -5.8679635599e-02 +5.9823040885e-02 8.5418823276e-02 5.1100000000e-04 0.0000e+00 1.0000e+00
  1000022  1    3    3    0    0 +1.3265834967e+02 +4.3958847200e+02 -1.9167630301e+02 2.3043602296e+03 2.2500000000e+03 0.0000e+00 0.0000e+00
      -11  1    4    4    0    0 +9.6892739782e-02 -2.9030727649e-02 -4.5055547727e-02 1.1073052637e-01 5.1100000000e-04 0.0000e+00 -1.0000e+00
  1000022  1    4    4    0    0 -1.3273868889e+02 -4.3950076163e+02 -1.2424225203e+03 2.6109182672e+03 2.2500000000e+03 0.0000e+00 0.0000e+00
<mgrwt>
<rscale>  0 0.47016267E+04</rscale>
<asrwt>0</asrwt>
<pdfrwt beam="1">  1        2 0.26779928E+00 0.47016267E+04</pdfrwt>
<pdfrwt beam="2">  1       -2 0.48842759E+00 0.47016267E+04</pdfrwt>
<totfact> 0.13591734E-02</totfact>
</mgrwt>
</event>
<event>
 8      1 +1.2359593e-08 4.84460100e+03 7.81860800e-03 7.85293600e-02
        2 -1    0    0  501    0 +0.0000000000e+00 +0.0000000000e+00 +1.2366890063e+03 1.2366890063e+03 2.5500000000e-03 0.0000e+00 1.0000e+00
       -2 -1    0    0    0  501 -0.0000000000e+00 -0.0000000000e+00 -4.7445553290e+03 4.7445553290e+03 2.5500000000e-03 0.0000e+00 -1.0000e+00
  1000011  2    1    2    0    0 -8.7141548560e+02 -1.1665635715e+02 -1.9734955813e+03 3.1193879589e+03 2.2500939479e+03 3.7464e+02 0.0000e+00
 -1000011  2    1    2    0    0 +8.7141548560e+02 +1.1665635715e+02 -1.5343707414e+03 2.8618563764e+03 2.2501010406e+03 5.6018e+02 0.0000e+00
       11  1    3    3    0    0 -1.8836648036e-02 +8.8041423068e-02 -7.5403776891e-02 1.1743978062e-01 5.1100000000e-04 0.0000e+00 1.0000e+00
  1000022  1    3    3    0    0 -8.7139664895e+02 -1.1674439857e+02 -1.9734201775e+03 3.1192705191e+03 2.2500000000e+03 0.0000e+00 0.0000e+00
      -11  1    4    4    0    0 -4.2816030544e-02 -2.4249291314e-02 -1.2013935353e-01 1.2982667444e-01 5.1100000000e-04 0.0000e+00 -1.0000e+00
  1000022  1    4    4    0    0 +8.7145830163e+02 +1.1668060644e+02 -1.5342506020e+03 2.8617265497e+03 2.2500000000e+03 0.0000e+00 0.0000e+00
<mgrwt>
<rscale>  0 0.48446009E+04</rscale>
<asrwt>0</asrwt>
<pdfrwt beam="1">  1        2 0.19025985E+00 0.48446009E+04</pdfrwt>
<pdfrwt beam="2">  1       -2 0.72993158E+00 0.48446009E+04</pdfrwt>
<totfact> 0.23360428E-03</totfact>
</mgrwt>
</event>
<event>
 8      1 +1.2359593e-08 5.18319200e+03 7.81860800e-03 7.80085300e-02
       -2 -1    0    0    0  501 -0.0000000000e+00 +0.0000000000e+00 +1.9229279409e+03 1.9229279409e+03 2.5500000000e-03 0.0000e+00 -1.0000e+00
        2 -1    0    0  501    0 +0.0000000000e+00 -0.0000000000e+00 -3.4927829101e+03 3.4927829101e+03 2.5500000000e-03 0.0000e+00 1.0000e+00
  1000011  2    1    2    0    0 -2.8294492827e+02 -5.7854255344e+02 -1.9478030831e+03 3.0449388886e+03 2.2500992570e+03 1.9807e+02 0.0000e+00
 -1000011  2    1    2    0    0 +2.8294492827e+02 +5.7854255344e+02 +3.7794811387e+02 2.3707719624e+03 2.2500990206e+03 1.2968e+03 0.0000e+00
       11  1    3    3    0    0 +3.3758426689e-02 +6.3591581863e-02 -9.3027799162e-02 1.1763482795e-01 5.1100000000e-04 0.0000e+00 1.0000e+00
  1000022  1    3    3    0    0 -2.8297868669e+02 -5.7860614502e+02 -1.9477100553e+03 3.0448212538e+03 2.2500000000e+03 0.0000e+00 0.0000e+00
      -11  1    4    4    0    0 -8.6138731423e-02 +3.4441345040e-02 +5.0496094101e-03 9.2907731273e-02 5.1100000000e-04 0.0000e+00 -1.0000e+00
  1000022  1    4    4    0    0 +2.8303106700e+02 +5.7850811209e+02 +3.7794306426e+02 2.3706790547e+03 2.2500000000e+03 0.0000e+00 0.0000e+00
<mgrwt>
<rscale>  0 0.51831920E+04</rscale>
<asrwt>0</asrwt>
<pdfrwt beam="1">  1        2 0.53735122E+00 0.51831920E+04</pdfrwt>
<pdfrwt beam="2">  1       -2 0.29583507E+00 0.51831920E+04</pdfrwt>
<totfact> 0.19851978E-02</totfact>
</mgrwt>
</event>
<event>
 8      1 +1.2359593e-08 4.83322800e+03 7.81860800e-03 7.85476100e-02
       -2 -1    0    0    0  501 -0.0000000000e+00 +0.0000000000e+00 +1.9944280511e+03 1.9944280511e+03 2.5500000000e-03 0.0000e+00 -1.0000e+00
        2 -1    0    0  501    0 +0.0000000000e+00 -0.0000000000e+00 -2.9281700158e+03 2.9281700158e+03 2.5500000000e-03 0.0000e+00 1.0000e+00
  1000011  2    1    2    0    0 +5.9132443587e+02 -6.3033131011e+02 -6.4354621093e+02 2.4948105418e+03 2.2500990566e+03 1.5764e+03 0.0000e+00
 -1000011  2    1    2    0    0 -5.9132443587e+02 +6.3033131011e+02 -2.9019575377e+02 2.4277875251e+03 2.2501014516e+03 8.4112e+02 0.0000e+00
       11  1    3    3    0    0 +6.6519083187e-02 +5.6347675578e-02 +1.1417377734e-02 8.7923069981e-02 5.1100000000e-04 0.0000e+00 1.0000e+00
  1000022  1    3    3    0    0 +5.9125791679e+02 -6.3038765778e+02 -6.4355762831e+02 2.4947226187e+03 2.2500000000e+03 0.0000e+00 0.0000e+00
      -11  1    4    4    0    0 +7.6033746697e-02 +9.8725576772e-03 -2.7033263367e-02 8.1299790255e-02 5.1100000000e-04 0.0000e+00 -1.0000e+00
  1000022  1    4    4    0    0 -5.9140046962e+02 +6.3032143755e+02 -2.9016872051e+02 2.4277062253e+03 2.2500000000e+03 0.0000e+00 0.0000e+00
<mgrwt>
<rscale>  0 0.48332285E+04</rscale>
<asrwt>0</asrwt>
<pdfrwt beam="1">  1        2 0.45048770E+00 0.48332285E+04</pdfrwt>
<pdfrwt beam="2">  1       -2 0.30683508E+00 0.48332285E+04</pdfrwt>
<totfact> 0.41077964E-02</totfact>
</mgrwt>
</event>
<event>
 8      1 +1.2359593e-08 5.30730300e+03 7.81860800e-03 7.78277600e-02
        2 -1    0    0  501    0 +0.0000000000e+00 +0.0000000000e+00 +2.0838927511e+03 2.0838927511e+03 2.5500000000e-03 0.0000e+00 1.0000e+00
       -2 -1    0    0    0  501 -0.0000000000e+00 -0.0000000000e+00 -3.3791880797e+03 3.3791880797e+03 2.5500000000e-03 0.0000e+00 -1.0000e+00
  1000011  2    1    2    0    0 +1.0229980967e+03 +7.0559221237e+01 -1.6389352252e+03 2.9665746162e+03 2.2501005692e+03 1.6006e+03 0.0000e+00
 -1000011  2    1    2    0    0 -1.0229980967e+03 -7.0559221237e+01 +3.4363989658e+02 2.4965062146e+03 2.2501002625e+03 1.0010e+03 0.0000e+00
       11  1    3    3    0    0 +2.5606615638e-02 -3.9098376973e-02 +4.0465289405e-02 6.1822992468e-02 5.1100000000e-04 0.0000e+00 1.0000e+00
  1000022  1    3    3    0    0 +1.0229724901e+03 +7.0598319614e+01 -1.6389756905e+03 2.9665127932e+03 2.2500000000e+03 0.0000e+00 0.0000e+00
      -11  1    4    4    0    0 -1.3399268007e-02 -7.3678297486e-02 -5.1444876461e-02 9.0856302432e-02 5.1100000000e-04 0.0000e+00 -1.0000e+00
  1000022  1    4    4    0    0 -1.0229846974e+03 -7.0485542940e+01 +3.4369134146e+02 2.4964153583e+03 2.2500000000e+03 0.0000e+00 0.0000e+00
<mgrwt>
<rscale>  0 0.53073027E+04</rscale>
<asrwt>0</asrwt>
<pdfrwt beam="1">  1        2 0.32059888E+00 0.53073027E+04</pdfrwt>
<pdfrwt beam="2">  1       -2 0.51987509E+00 0.53073027E+04</pdfrwt>
<totfact> 0.53899208E-03</totfact>
</mgrwt>
</event>
<event>
 8      1 +1.2359593e-08 5.11227600e+03 7.81860800e-03 7.81141700e-02
       -2 -1    0    0    0  501 -0.0000000000e+00 +0.0000000000e+00 +2.3575537679e+03 2.3575537679e+03 2.5500000000e-03 0.0000e+00 -1.0000e+00
        2 -1    0    0  501    0 +0.0000000000e+00 -0.0000000000e+00 -2.7714497911e+03 2.7714497911e+03 2.5500000000e-03 0.0000e+00 1.0000e+00
  1000011  2    1    2    0    0 -5.9007282156e+02 +4.8167557277e+02 -1.1538020031e+03 2.6409102969e+03 2.2501001848e+03 7.7156e+02 0.0000e+00
 -1000011  2    1    2    0    0 +5.9007282156e+02 -4.8167557277e+02 +7.3990597987e+02 2.4880932621e+03 2.2500999822e+03 5.3810e+02 0.0000e+00
       11  1    3    3    0    0 -2.9663619947e-04 -7.7780359611e-02 -5.5020846622e-02 9.5275530458e-02 5.1100000000e-04 0.0000e+00 1.0000e+00
  1000022  1    3    3    0    0 -5.9007252492e+02 +4.8175335313e+02 -1.1537469823e+03 2.6408150214e+03 2.2500000000e+03 0.0000e+00 0.0000e+00
      -11  1    4    4    0    0 -5.4071561111e-02 +3.3286866596e-02 -1.7640728670e-02 6.5902999446e-02 5.1100000000e-04 0.0000e+00 -1.0000e+00
  1000022  1    4    4    0    0 +5.9012689312e+02 -4.8170885963e+02 +7.3992362060e+02 2.4880273591e+03 2.2500000000e+03 0.0000e+00 0.0000e+00
<mgrwt>
<rscale>  0 0.51122762E+04</rscale>
<asrwt>0</asrwt>
<pdfrwt beam="1">  1        2 0.42637689E+00 0.51122762E+04</pdfrwt>
<pdfrwt beam="2">  1       -2 0.36270058E+00 0.51122762E+04</pdfrwt>
<totfact> 0.22442681E-02</totfact>
</mgrwt>
</event>
<event>
 8      1 +1.2359593e-08 4.61206800e+03 7.81860800e-03 7.89130500e-02
        2 -1    0    0  501    0 +0.0000000000e+00 +0.0000000000e+00 +3.7701649177e+03 3.7701649177e+03 2.5500000000e-03 0.0000e+00 1.0000e+00
       -2 -1    0    0    0  501 -0.0000000000e+00 -0.0000000000e+00 -1.4104935092e+03 1.4104935092e+03 2.5500000000e-03 0.0000e+00 -1.0000e+00
  1000011  2    1    2    0    0 -1.8388226693e+02 -2.8503172225e+02 +1.5998091335e+03 2.7816166804e+03 2.2500991806e+03 6.0492e+01 0.0000e+00
 -1000011  2    1    2    0    0 +1.8388226693e+02 +2.8503172225e+02 +7.5986227501e+02 2.3990417465e+03 2.2501010764e+03 2.7974e+01 0.0000e+00
       11  1    3    3    0    0 -1.0497599355e-01 +7.3608228253e-03 +6.3089792117e-02 1.2269769254e-01 5.1100000000e-04 0.0000e+00 1.0000e+00
  1000022  1    3    3    0    0 -1.8377729094e+02 -2.8503908307e+02 +1.5997460437e+03 2.7814939827e+03 2.2500000000e+03 0.0000e+00 0.0000e+00
      -11  1    4    4    0    0 -3.8181685289e-02 +1.0288403521e-01 +3.7755073368e-02 1.1605460837e-01 5.1100000000e-04 0.0000e+00 -1.0000e+00
  1000022  1    4    4    0    0 +1.8392044862e+02 +2.8492883822e+02 +7.5982451993e+02 2.3989256919e+03 2.2500000000e+03 0.0000e+00 0.0000e+00
<mgrwt>
<rscale>  0 0.46120681E+04</rscale>
<asrwt>0</asrwt>
<pdfrwt beam="1">  1        2 0.58002537E+00 0.46120681E+04</pdfrwt>
<pdfrwt beam="2">  1       -2 0.21699900E+00 0.46120681E+04</pdfrwt>
<totfact> 0.39995927E-02</totfact>
</mgrwt>
</event>
<event>
 8      1 +1.2359593e-08 5.34682000e+03 7.81860800e-03 7.77712600e-02
        2 -1    0    0  501    0 +0.0000000000e+00 +0.0000000000e+00 +3.5184720080e+03 3.5184720080e+03 2.5500000000e-03 0.0000e+00 1.0000e+00
       -2 -1    0    0    0  501 -0.0000000000e+00 -0.0000000000e+00 -2.0313138892e+03 2.0313138892e+03 2.5500000000e-03 0.0000e+00 -1.0000e+00
  1000011  2    1    2    0    0 +9.7357947071e+01 +1.4260548268e+03 +5.3325681190e+02 2.7185336007e+03 2.2501002582e+03 5.8414e+02 0.0000e+00
 -1000011  2    1    2    0    0 -9.7357947071e+01 -1.4260548268e+03 +9.5390130687e+02 2.8312522965e+03 2.2501002032e+03 3.3372e+01 0.0000e+00
       11  1    3    3    0    0 +2.4316625626e-03 +2.1461627255e-02 +1.1483727592e-01 1.1685193644e-01 5.1100000000e-04 0.0000e+00 1.0000e+00
  1000022  1    3    3    0    0 +9.7355515409e+01 +1.4260333652e+03 +5.3314197462e+02 2.7184167488e+03 2.2500000000e+03 0.0000e+00 0.0000e+00
      -11  1    4    4    0    0 +4.7632984826e-02 -1.6070032657e-01 +3.9109492437e-02 1.7211423373e-01 5.1100000000e-04 0.0000e+00 -1.0000e+00
  1000022  1    4    4    0    0 -9.7405580056e+01 -1.4258941265e+03 +9.5386219737e+02 2.8310801823e+03 2.2500000000e+03 0.0000e+00 0.0000e+00
<mgrwt>
<rscale>  0 0.53468200E+04</rscale>
<asrwt>0</asrwt>
<pdfrwt beam="1">  1        2 0.54130339E+00 0.53468200E+04</pdfrwt>
<pdfrwt beam="2">  1       -2 0.31250983E+00 0.53468200E+04</pdfrwt>
<totfact> 0.14852574E-02</totfact>
</mgrwt>
</event>
<event>
 8      1 +1.2359593e-08 4.81444000e+03 7.81860800e-03 7.85778700e-02
        2 -1    0    0  501    0 +0.0000000000e+00 +0.0000000000e+00 +3.8746144877e+03 3.8746144877e+03 2.5500000000e-03 0.0000e+00 1.0000e+00
       -2 -1    0    0    0  501 -0.0000000000e+00 -0.0000000000e+00 -1.4955576142e+03 1.4955576142e+03 2.5500000000e-03 0.0000e+00 -1.0000e+00
  1000011  2    1    2    0    0 +2.1360436912e+02 -7.4686046428e+02 +7.8994013149e+02 2.5080632157e+03 2.2500996207e+03 2.1691e+02 0.0000e+00
 -1000011  2    1    2    0    0 -2.1360436912e+02 +7.4686046428e+02 +1.5891167420e+03 2.8621088862e+03 2.2500995260e+03 1.6621e+02 0.0000e+00
       11  1    3    3    0    0 -8.4824972791e-02 -5.5398987006e-02 +5.8925885419e-02 1.1720428552e-01 5.1100000000e-04 0.0000e+00 1.0000e+00
  1000022  1    3    3    0    0 +2.1368919409e+02 -7.4680506529e+02 +7.8988120561e+02 2.5079460114e+03 2.2500000000e+03 0.0000e+00 0.0000e+00
      -11  1    4    4    0    0 +6.3154041132e-02 +8.9093731767e-02 +2.9381689547e-02 1.1309142522e-01 5.1100000000e-04 0.0000e+00 -1.0000e+00
  1000022  1    4    4    0    0 -2.1366752316e+02 +7.4677137055e+02 +1.5890873604e+03 2.8619957947e+03 2.2500000000e+03 0.0000e+00 0.0000e+00
<mgrwt>
<rscale>  0 0.48144404E+04</rscale>
<asrwt>0</asrwt>
<pdfrwt beam="1">  1        2 0.59609453E+00 0.48144404E+04</pdfrwt>
<pdfrwt beam="2">  1       -2 0.23008579E+00 0.48144404E+04</pdfrwt>
<totfact> 0.27045545E-02</totfact>
</mgrwt>
</event>
<event>
 8      1 +1.2359593e-08 4.99931400e+03 7.81860800e-03 7.82861300e-02
        2 -1    0    0  501    0 +0.0000000000e+00 +0.0000000000e+00 +2.3318136667e+03 2.3318136667e+03 2.5500000000e-03 0.0000e+00 -1.0000e+00
       -2 -1    0    0    0  501 -0.0000000000e+00 -0.0000000000e+00 -2.6795815414e+03 2.6795815414e+03 2.5500000000e-03 0.0000e+00 1.0000e+00
  1000011  2    1    2    0    0 +5.4751136778e+02 -7.6376870957e+02 +3.7718664693e+02 2.4674568704e+03 2.2501027312e+03 7.5087e+01 0.0000e+00
 -1000011  2    1    2    0    0 -5.4751136778e+02 +7.6376870957e+02 -7.2495452160e+02 2.5439383377e+03 2.2501004129e+03 9.9646e+02 0.0000e+00
       11  1    3    3    0    0 +5.5663878634e-02 -6.8279946141e-02 -7.5005035372e-02 1.1570062577e-01 5.1100000000e-04 0.0000e+00 1.0000e+00
  1000022  1    3    3    0    0 +5.4745570390e+02 -7.6370042962e+02 +3.7726165196e+02 2.4673411698e+03 2.2500000000e+03 0.0000e+00 0.0000e+00
      -11  1    4    4    0    0 +1.3145398304e-02 +7.3822916995e-02 +5.4405159015e-02 9.2643438963e-02 5.1100000000e-04 0.0000e+00 -1.0000e+00
  1000022  1    4    4    0    0 -5.4752451318e+02 +7.6369488665e+02 -7.2500892676e+02 2.5438456943e+03 2.2500000000e+03 0.0000e+00 0.0000e+00
<mgrwt>
<rscale>  0 0.49993139E+04</rscale>
<asrwt>0</asrwt>
<pdfrwt beam="1">  1        2 0.35874056E+00 0.49993139E+04</pdfrwt>
<pdfrwt beam="2">  1       -2 0.41224332E+00 0.49993139E+04</pdfrwt>
<totfact> 0.19550604E-02</totfact>
</mgrwt>
</event>
<event>
 8      1 +1.2359593e-08 4.75504800e+03 7.81860800e-03 7.86744600e-02
       -2 -1    0    0    0  501 -0.0000000000e+00 +0.0000000000e+00 +2.5559091945e+03 2.5559091945e+03 2.5500000000e-03 0.0000e+00 -1.0000e+00
        2 -1    0    0  501    0 +0.0000000000e+00 -0.0000000000e+00 -2.2115885416e+03 2.2115885416e+03 2.5500000000e-03 0.0000e+00 1.0000e+00
  1000011  2    1    2    0    0 -2.3358080714e+02 +7.0164301676e+02 +3.7948400479e+02 2.3987125166e+03 2.2501001558e+03 3.1619e+01 0.0000e+00
 -1000011  2    1    2    0    0 +2.3358080714e+02 -7.0164301676e+02 -3.5163351891e+01 2.3687852195e+03 2.2501208942e+03 1.0659e+03 0.0000e+00
       11  1    3    3    0    0 -7.4904037194e-02 -4.4631665647e-02 -5.2706721181e-03 8.7353541848e-02 5.1100000000e-04 0.0000e+00 1.0000e+00
  1000022  1    3    3    0    0 -2.3350590310e+02 +7.0168764842e+02 +3.7948927546e+02 2.3986251631e+03 2.2500000000e+03 0.0000e+00 0.0000e+00
      -11  1    4    4    0    0 +7.9923832762e-02 +1.7891201742e-02 +8.2417651519e-02 1.1619313343e-01 5.1100000000e-04 0.0000e+00 -1.0000e+00
  1000022  1    4    4    0    0 +2.3350088331e+02 -7.0166090796e+02 -3.5245769542e+01 2.3686690264e+03 2.2500000000e+03 0.0000e+00 0.0000e+00
<mgrwt>
<rscale>  0 0.47550476E+04</rscale>
<asrwt>0</asrwt>
<pdfrwt beam="1">  1        2 0.34024439E+00 0.47550476E+04</pdfrwt>
<pdfrwt beam="2">  1       -2 0.39321680E+00 0.47550476E+04</pdfrwt>
<totfact> 0.31046317E-02</totfact>
</mgrwt>
</event>
<event>
 8      1 +1.2359593e-08 4.63485400e+03 7.81860800e-03 7.88744400e-02
        2 -1    0    0  501    0 +0.0000000000e+00 +0.0000000000e+00 +2.3113622315e+03 2.3113622315e+03 2.5500000000e-03 0.0000e+00 1.0000e+00
       -2 -1    0    0    0  501 -0.0000000000e+00 -0.0000000000e+00 -2.3235079227e+03 2.3235079227e+03 2.5500000000e-03 0.0000e+00 -1.0000e+00
  1000011  2    1    2    0    0 -4.6066053445e+01 +2.3080005702e+02 +4.9605992241e+02 2.3161206799e+03 2.2500997332e+03 2.7418e+02 0.0000e+00
 -1000011  2    1    2    0    0 +4.6066053445e+01 -2.3080005702e+02 -5.0820561353e+02 2.3187494743e+03 2.2500967605e+03 2.0768e+02 0.0000e+00
       11  1    3    3    0    0 +7.6785880494e-02 +7.0329161763e-02 +3.5125420995e-02 1.0989230426e-01 5.1100000000e-04 0.0000e+00 1.0000e+00
  1000022  1    3    3    0    0 -4.6142839325e+01 +2.3072972786e+02 +4.9602479698e+02 2.3160107876e+03 2.2500000000e+03 0.0000e+00 0.0000e+00
      -11  1    4    4    0    0 +7.1023690767e-02 -7.5858182763e-02 -4.1840680869e-02 1.1202558471e-01 5.1100000000e-04 0.0000e+00 -1.0000e+00
  1000022  1    4    4    0    0 +4.5995029754e+01 -2.3072419884e+02 -5.0816377285e+02 2.3186374487e+03 2.2500000000e+03 0.0000e+00 0.0000e+00
<mgrwt>
<rscale>  0 0.46348542E+04</rscale>
<asrwt>0</asrwt>
<pdfrwt beam="1">  1        2 0.35559419E+00 0.46348542E+04</pdfrwt>
<pdfrwt beam="2">  1       -2 0.35746276E+00 0.46348542E+04</pdfrwt>
<totfact> 0.46724137E-02</totfact>
</mgrwt>
</event>
<event>
 8      1 +1.2359593e-08 5.03927600e+03 7.81860800e-03 7.82247700e-02
        2 -1    0    0  501    0 +0.0000000000e+00 +0.0000000000e+00 +4.2845221549e+03 4.2845221549e+03 2.5500000000e-03 0.0000e+00 1.0000e+00
       -2 -1    0    0    0  501 -0.0000000000e+00 -0.0000000000e+00 -1.4817462850e+03 1.4817462850e+03 2.5500000000e-03 0.0000e+00 -1.0000e+00
  1000011  2    1    2    0    0 -3.7585423898e+02 +1.0591080774e+03 +1.5736006608e+03 2.9668412614e+03 2.2501003761e+03 1.1869e+03 0.0000e+00
 -1000011  2    1    2    0    0 +3.7585423898e+02 -1.0591080774e+03 +1.2291752090e+03 2.7994271785e+03 2.2500987766e+03 2.8179e+02 0.0000e+00
       11  1    3    3    0    0 -5.0543624085e-02 +1.1514864532e-01 +4.1245693119e-03 1.2582186390e-01 5.1100000000e-04 0.0000e+00 1.0000e+00
  1000022  1    3    3    0    0 -3.7580369535e+02 +1.0589929287e+03 +1.5735965362e+03 2.9667154396e+03 2.2500000000e+03 0.0000e+00 0.0000e+00
      -11  1    4    4    0    0 +9.0889359250e-02 -1.2473856804e-01 +6.8317486897e-02 1.6878425783e-01 5.1100000000e-04 0.0000e+00 -1.0000e+00
  1000022  1    4    4    0    0 +3.7576334962e+02 -1.0589833388e+03 +1.2291068915e+03 2.7992583942e+03 2.2500000000e+03 0.0000e+00 0.0000e+00
<mgrwt>
<rscale>  0 0.50392757E+04</rscale>
<asrwt>0</asrwt>
<pdfrwt beam="1">  1        2 0.65915726E+00 0.50392757E+04</pdfrwt>
<pdfrwt beam="2">  1       -2 0.22796097E+00 0.50392757E+04</pdfrwt>
<totfact> 0.12425433E-02</totfact>
</mgrwt>
</event>
<event>
 8      1 +1.2359593e-08 5.67038600e+03 7.81860800e-03 7.73267000e-02
       -2 -1    0    0    0  501 -0.0000000000e+00 +0.0000000000e+00 +2.9999086446e+03 2.9999086446e+03 2.5500000000e-03 0.0000e+00 -1.0000e+00
        2 -1    0    0  501    0 +0.0000000000e+00 -0.0000000000e+00 -2.6795214813e+03 2.6795214813e+03 2.5500000000e-03 0.0000e+00 1.0000e+00
  1000011  2    1    2    0    0 +1.5240011442e+03 +6.8523768851e+02 -2.6855919396e+02 2.8155283923e+03 2.2500990890e+03 1.1447e+03 0.0000e+00
 -1000011  2    1    2    0    0 -1.5240011442e+03 -6.8523768851e+02 +5.8894635721e+02 2.8639017335e+03 2.2500989202e+03 2.7623e+02 0.0000e+00
       11  1    3    3    0    0 +4.7101814411e-02 -4.9631599381e-02 -7.2227260584e-02 9.9493289200e-02 5.1100000000e-04 0.0000e+00 1.0000e+00
  1000022  1    3    3    0    0 +1.5239540424e+03 +6.8528732011e+02 -2.6848696670e+02 2.8154288990e+03 2.2500000000e+03 0.0000e+00 0.0000e+00
      -11  1    4    4    0    0 -1.5983407110e-01 -4.6170485346e-02 +1.0087683520e-01 1.9456371860e-01 5.1100000000e-04 0.0000e+00 -1.0000e+00
  1000022  1    4    4    0    0 -1.5238413101e+03 -6.8519151803e+02 +5.8884548038e+02 2.8637071698e+03 2.2500000000e+03 0.0000e+00 0.0000e+00
<mgrwt>
<rscale>  0 0.56703861E+04</rscale>
<asrwt>0</asrwt>
<pdfrwt beam="1">  1        2 0.41223408E+00 0.56703861E+04</pdfrwt>
<pdfrwt beam="2">  1       -2 0.46152440E+00 0.56703861E+04</pdfrwt>
<totfact> 0.55236347E-03</totfact>
</mgrwt>
</event>
<event>
 8      1 +1.2359593e-08 4.56854000e+03 7.81860800e-03 7.89874600e-02
        2 -1    0    0  501    0 +0.0000000000e+00 +0.0000000000e+00 +3.2422697952e+03 3.2422697952e+03 2.5500000000e-03 0.0000e+00 1.0000e+00
       -2 -1    0    0    0  501 -0.0000000000e+00 -0.0000000000e+00 -1.6093320550e+03 1.6093320550e+03 2.5500000000e-03 0.0000e+00 -1.0000e+00
  1000011  2    1    2    0    0 -7.0457179215e+01 +3.8636584614e+02 +7.8837854664e+02 2.4163467954e+03 2.2500996248e+03 1.0839e+03 0.0000e+00
 -1000011  2    1    2    0    0 +7.0457179215e+01 -3.8636584614e+02 +8.4455919361e+02 2.4352550548e+03 2.2500987021e+03 2.8569e+01 0.0000e+00
       11  1    3    3    0    0 +5.4822712033e-02 +1.1325330134e-02 +1.1951144087e-01 1.3197362758e-01 5.1100000000e-04 0.0000e+00 1.0000e+00
  1000022  1    3    3    0    0 -7.0512001927e+01 +3.8635452081e+02 +7.8825903520e+02 2.4162148217e+03 2.2500000000e+03 0.0000e+00 0.0000e+00
      -11  1    4    4    0    0 +8.6371926127e-02 +2.4414862154e-02 -1.8190719522e-04 8.9757944547e-02 5.1100000000e-04 0.0000e+00 -1.0000e+00
  1000022  1    4    4    0    0 +7.0370807289e+01 -3.8639026100e+02 +8.4455937552e+02 2.4351652969e+03 2.2500000000e+03 0.0000e+00 0.0000e+00
<mgrwt>
<rscale>  0 0.45685397E+04</rscale>
<asrwt>0</asrwt>
<pdfrwt beam="1">  1        2 0.49881073E+00 0.45685397E+04</pdfrwt>
<pdfrwt beam="2">  1       -2 0.24758955E+00 0.45685397E+04</pdfrwt>
<totfact> 0.60891330E-02</totfact>
</mgrwt>
</event>
<event>
 8      1 +1.2359593e-08 5.02632000e+03 7.81860800e-03 7.82446000e-02
        2 -1    0    0  501    0 +0.0000000000e+00 +0.0000000000e+00 +2.3216243609e+03 2.3216243609e+03 2.5500000000e-03 0.0000e+00 1.0000e+00
       -2 -1    0    0    0  501 -0.0000000000e+00 -0.0000000000e+00 -2.7204976335e+03 2.7204976335e+03 2.5500000000e-03 0.0000e+00 -1.0000e+00
  1000011  2    1    2    0    0 -1.1020521411e+03 +1.9239606926e+02 -2.3811930502e+02 2.5241210611e+03 2.2501002551e+03 9.3019e+01 0.0000e+00
 -1000011  2    1    2    0    0 +1.1020521411e+03 -1.9239606926e+02 -1.6075396758e+02 2.5180009333e+03 2.2501003739e+03 1.8193e+03 0.0000e+00
       11  1    3    3    0    0 +3.5022476824e-02 +7.0978733915e-02 +2.9852125291e-03 7.9206862062e-02 5.1100000000e-04 0.0000e+00 1.0000e+00
  1000022  1    3    3    0    0 -1.1020871636e+03 +1.9232509053e+02 -2.3812229023e+02 2.5240418542e+03 2.2500000000e+03 0.0000e+00 0.0000e+00
      -11  1    4    4    0    0 +7.9323103038e-02 -1.0533383794e-01 +6.6859244850e-03 1.3203156651e-01 5.1100000000e-04 0.0000e+00 -1.0000e+00
  1000022  1    4    4    0    0 +1.1019728180e+03 -1.9229073543e+02 -1.6076065350e+02 2.5178689017e+03 2.2500000000e+03 0.0000e+00 0.0000e+00
<mgrwt>
<rscale>  0 0.50263202E+04</rscale>
<asrwt>0</asrwt>
<pdfrwt beam="1">  1        2 0.35717298E+00 0.50263202E+04</pdfrwt>
<pdfrwt beam="2">  1       -2 0.41853810E+00 0.50263202E+04</pdfrwt>
<totfact> 0.17973089E-02</totfact>
</mgrwt>
</event>
<event>
 8      1 +1.2359593e-08 4.69380000e+03 7.81860800e-03 7.87756000e-02
        2 -1    0    0  501    0 +0.0000000000e+00 +0.0000000000e+00 +2.8664343325e+03 2.8664343325e+03 2.5500000000e-03 0.0000e+00 1.0000e+00
       -2 -1    0    0    0  501 -0.0000000000e+00 -0.0000000000e+00 -1.9215301372e+03 1.9215301372e+03 2.5500000000e-03 0.0000e+00 -1.0000e+00
  1000011  2    1    2    0    0 +3.5771727619e+02 +2.8081280587e+02 -2.5352780772e+01 2.2957440575e+03 2.2501067825e+03 3.0412e+01 0.0000e+00
 -1000011  2    1    2    0    0 -3.5771727619e+02 -2.8081280587e+02 +9.7025697612e+02 2.4922204122e+03 2.2500992204e+03 3.7479e+02 0.0000e+00
       11  1    3    3    0    0 +8.1170721825e-02 -6.2517388970e-02 +3.7893368031e-02 1.0923954388e-01 5.1100000000e-04 0.0000e+00 1.0000e+00
  1000022  1    3    3    0    0 +3.5763610547e+02 +2.8087532326e+02 -2.5390674140e+01 2.2956348180e+03 2.2500000000e+03 0.0000e+00 0.0000e+00
      -11  1    4    4    0    0 -6.3602127653e-03 +7.3413550419e-03 -6.4009998027e-02 6.4744791856e-02 5.1100000000e-04 0.0000e+00 -1.0000e+00
  1000022  1    4    4    0    0 -3.5771091598e+02 -2.8082014723e+02 +9.7032098612e+02 2.4921556674e+03 2.2500000000e+03 0.0000e+00 0.0000e+00
<mgrwt>
<rscale>  0 0.46938001E+04</rscale>
<asrwt>0</asrwt>
<pdfrwt beam="1">  1        2 0.44098990E+00 0.46938001E+04</pdfrwt>
<pdfrwt beam="2">  1       -2 0.29562002E+00 0.46938001E+04</pdfrwt>
<totfact> 0.53112475E-02</totfact>
</mgrwt>
</event>
<event>
 8      1 +1.2359593e-08 4.99913800e+03 7.81860800e-03 7.82864000e-02
        2 -1    0    0  501    0 +0.0000000000e+00 +0.0000000000e+00 +4.8917586183e+03 4.8917586183e+03 2.5500000000e-03 0.0000e+00 1.0000e+00
       -2 -1    0    0    0  501 -0.0000000000e+00 -0.0000000000e+00 -1.2772186894e+03 1.2772186894e+03 2.5500000000e-03 0.0000e+00 -1.0000e+00
  1000011  2    1    2    0    0 +7.0915054407e+02 +5.8882709923e+02 +1.0926981529e+03 2.6657995699e+03 2.2500858310e+03 2.9722e+02 0.0000e+00
 -1000011  2    1    2    0    0 -7.0915054407e+02 -5.8882709923e+02 +2.5218417761e+03 3.5031777378e+03 2.2501014360e+03 6.1627e+01 0.0000e+00
       11  1    3    3    0    0 +6.7537409662e-02 -4.8624677698e-02 +6.8326231766e-02 1.0767727560e-01 5.1100000000e-04 0.0000e+00 1.0000e+00
  1000022  1    3    3    0    0 +7.0908300666e+02 +5.8887572391e+02 +1.0926298266e+03 2.6656918927e+03 2.2500000000e+03 0.0000e+00 0.0000e+00
      -11  1    4    4    0    0 +1.1918719877e-02 +5.1123720494e-02 -2.2241887527e-03 5.2544250051e-02 5.1100000000e-04 0.0000e+00 -1.0000e+00
  1000022  1    4    4    0    0 -7.0916246279e+02 -5.8887822295e+02 +2.5218440003e+03 3.5031251936e+03 2.2500000000e+03 0.0000e+00 0.0000e+00
<mgrwt>
<rscale>  0 0.49991381E+04</rscale>
<asrwt>0</asrwt>
<pdfrwt beam="1">  1        2 0.75257827E+00 0.49991381E+04</pdfrwt>
<pdfrwt beam="2">  1       -2 0.19649518E+00 0.49991381E+04</pdfrwt>
<totfact> 0.46858039E-03</totfact>
</mgrwt>
</event>
<event>
 8      1 +1.2359593e-08 4.85855400e+03 7.81860800e-03 7.85070500e-02
       -2 -1    0    0    0  501 -0.0000000000e+00 +0.0000000000e+00 +1.6184154477e+03 1.6184154477e+03 2.5500000000e-03 0.0000e+00 -1.0000e+00
        2 -1    0    0  501    0 +0.0000000000e+00 -0.0000000000e+00 -3.6463986507e+03 3.6463986507e+03 2.5500000000e-03 0.0000e+00 1.0000e+00
  1000011  2    1    2    0    0 -1.1117980792e+02 -8.7186503439e+02 -1.2921460873e+03 2.7395595205e+03 2.2501189452e+03 2.2119e+03 0.0000e+00
 -1000011  2    1    2    0    0 +1.1117980792e+02 +8.7186503439e+02 -7.3583711576e+02 2.5252545780e+03 2.2500988500e+03 1.2208e+03 0.0000e+00
       11  1    3    3    0    0 -7.6845005880e-02 +3.6931303372e-02 -1.1542198058e-01 1.4349763210e-01 5.1100000000e-04 0.0000e+00 1.0000e+00
  1000022  1    3    3    0    0 -1.1110296291e+02 -8.7190196569e+02 -1.2920306653e+03 2.7394160228e+03 2.2500000000e+03 0.0000e+00 0.0000e+00
      -11  1    4    4    0    0 -2.2743076887e-02 +1.3394834857e-01 -9.9874357895e-03 1.3623295266e-01 5.1100000000e-04 0.0000e+00 -1.0000e+00
  1000022  1    4    4    0    0 +1.1120255099e+02 +8.7173108604e+02 -7.3582712833e+02 2.5251183450e+03 2.2500000000e+03 0.0000e+00 0.0000e+00
<mgrwt>
<rscale>  0 0.48585545E+04</rscale>
<asrwt>0</asrwt>
<pdfrwt beam="1">  1        2 0.56098440E+00 0.48585545E+04</pdfrwt>
<pdfrwt beam="2">  1       -2 0.24898699E+00 0.48585545E+04</pdfrwt>
<totfact> 0.30591587E-02</totfact>
</mgrwt>
</event>
<event>
 8      1 +1.2359593e-08 4.51879900e+03 7.81860800e-03 7.90735400e-02
        2 -1    0    0  501    0 +0.0000000000e+00 +0.0000000000e+00 +4.0264045283e+03 4.0264045283e+03 2.5500000000e-03 0.0000e+00 1.0000e+00
       -2 -1    0    0    0  501 -0.0000000000e+00 -0.0000000000e+00 -1.2678522616e+03 1.2678522616e+03 2.5500000000e-03 0.0000e+00 -1.0000e+00
  1000011  2    1    2    0    0 +5.6104643488e+01 +1.9693758726e+02 +1.3800733372e+03 2.6475430517e+03 2.2500999200e+03 5.1029e+02 0.0000e+00
 -1000011  2    1    2    0    0 -5.6104643488e+01 -1.9693758726e+02 +1.3784789295e+03 2.6467137382e+03 2.2501016218e+03 1.7940e+03 0.0000e+00
       11  1    3    3    0    0 -4.1544437818e-02 -4.2797628561e-02 +1.4412902024e-01 1.5598401427e-01 5.1100000000e-04 0.0000e+00 1.0000e+00
  1000022  1    3    3    0    0 +5.6146187926e+01 +1.9698038489e+02 +1.3799292082e+03 2.6473870677e+03 2.2500000000e+03 0.0000e+00 0.0000e+00
      -11  1    4    4    0    0 -1.0089870651e-01 -1.7348038315e-02 +3.5759213796e-02 1.0844577156e-01 5.1100000000e-04 0.0000e+00 -1.0000e+00
  1000022  1    4    4    0    0 -5.6003744782e+01 -1.9692023923e+02 +1.3784431703e+03 2.6466052924e+03 2.2500000000e+03 0.0000e+00 0.0000e+00
<mgrwt>
<rscale>  0 0.45187990E+04</rscale>
<asrwt>0</asrwt>
<pdfrwt beam="1">  1        2 0.61944685E+00 0.45187990E+04</pdfrwt>
<pdfrwt beam="2">  1       -2 0.19505419E+00 0.45187990E+04</pdfrwt>
<totfact> 0.35169465E-02</totfact>
</mgrwt>
</event>
<event>
 8      1 +1.2359593e-08 5.95687500e+03 7.81860800e-03 7.69577200e-02
       -2 -1    0    0    0  501 -0.0000000000e+00 +0.0000000000e+00 +2.2715620006e+03 2.2715620006e+03 2.5500000000e-03 0.0000e+00 -1.0000e+00
        2 -1    0    0  501    0 +0.0000000000e+00 -0.0000000000e+00 -3.9052824004e+03 3.9052824004e+03 2.5500000000e-03 0.0000e+00 1.0000e+00
  1000011  2    1    2    0    0 -3.7967159616e+02 +1.9136493353e+03 -8.6236947234e+02 3.1004643062e+03 2.2501096658e+03 6.5292e+01 0.0000e+00
 -1000011  2    1    2    0    0 +3.7967159616e+02 -1.9136493353e+03 -7.7135092747e+02 3.0763800948e+03 2.2500950946e+03 1.3606e+02 0.0000e+00
       11  1    3    3    0    0 -2.7925325654e-02 +7.5081056850e-02 -1.5168161082e-01 1.7153588767e-01 5.1100000000e-04 0.0000e+00 1.0000e+00
  1000022  1    3    3    0    0 -3.7964367083e+02 +1.9135742542e+03 -8.6221779073e+02 3.1002927703e+03 2.2500000000e+03 0.0000e+00 0.0000e+00
      -11  1    4    4    0    0 +8.7984411524e-02 -1.6207143298e-01 -1.5214620916e-02 1.8504094568e-01 5.1100000000e-04 0.0000e+00 -1.0000e+00
  1000022  1    4    4    0    0 +3.7958361175e+02 -1.9134872638e+03 -7.7133571285e+02 3.0761950538e+03 2.2500000000e+03 0.0000e+00 0.0000e+00
<mgrwt>
<rscale>  0 0.59568754E+04</rscale>
<asrwt>0</asrwt>
<pdfrwt beam="1">  1        2 0.60081268E+00 0.59568754E+04</pdfrwt>
<pdfrwt beam="2">  1       -2 0.34947108E+00 0.59568754E+04</pdfrwt>
<totfact> 0.42917701E-03</totfact>
</mgrwt>
</event>
<event>
 8      1 +1.2359593e-08 4.54916400e+03 7.81860800e-03 7.90208600e-02
        2 -1    0    0  501    0 +0.0000000000e+00 +0.0000000000e+00 +1.4006268289e+03 1.4006268289e+03 2.5500000000e-03 0.0000e+00 1.0000e+00
       -2 -1    0    0    0  501 -0.0000000000e+00 -0.0000000000e+00 -3.6938632445e+03 3.6938632445e+03 2.5500000000e-03 0.0000e+00 -1.0000e+00
  1000011  2    1    2    0    0 +1.0553747561e+01 +3.3870609852e+01 -1.5172192232e+03 2.7140674376e+03 2.2500998388e+03 2.3925e+02 0.0000e+00
 -1000011  2    1    2    0    0 -1.0553747561e+01 -3.3870609852e+01 -7.7601719243e+02 2.3804226357e+03 2.2501001404e+03 7.0219e+02 0.0000e+00
       11  1    3    3    0    0 +9.7913118310e-02 +1.9098154925e-02 -5.2430422253e-02 1.1269839554e-01 5.1100000000e-04 0.0000e+00 1.0000e+00
  1000022  1    3    3    0    0 +1.0455834442e+01 +3.3851511697e+01 -1.5171667928e+03 2.7139547392e+03 2.2500000000e+03 0.0000e+00 0.0000e+00
      -11  1    4    4    0    0 -8.2125157242e-03 +1.6364628173e-02 -1.3835638285e-01 1.3956359011e-01 5.1100000000e-04 0.0000e+00 -1.0000e+00
  1000022  1    4    4    0    0 -1.0545535045e+01 -3.3886974481e+01 -7.7587883605e+02 2.3802830722e+03 2.2500000000e+03 0.0000e+00 0.0000e+00
<mgrwt>
<rscale>  0 0.45491643E+04</rscale>
<asrwt>0</asrwt>
<pdfrwt beam="1">  1        2 0.21548105E+00 0.45491643E+04</pdfrwt>
<pdfrwt beam="2">  1       -2 0.56828665E+00 0.45491643E+04</pdfrwt>
<totfact> 0.76206242E-03</totfact>
</mgrwt>
</event>
<event>
 8      1 +1.2359593e-08 4.72800100e+03 7.81860800e-03 7.87189300e-02
        2 -1    0    0  501    0 +0.0000000000e+00 +0.0000000000e+00 +2.3347345560e+03 2.3347345560e+03 2.5500000000e-03 0.0000e+00 1.0000e+00
       -2 -1    0    0    0  501 -0.0000000000e+00 -0.0000000000e+00 -2.3936330479e+03 2.3936330479e+03 2.5500000000e-03 0.0000e+00 -1.0000e+00
  1000011  2    1    2    0    0 -4.1485338415e+02 -9.7796960423e+01 +5.5695518872e+02 2.3568707384e+03 2.2501051130e+03 1.3032e+03 0.0000e+00
 -1000011  2    1    2    0    0 +4.1485338415e+02 +9.7796960423e+01 -6.1585368059e+02 2.3714968655e+03 2.2501231192e+03 1.1714e+03 0.0000e+00
       11  1    3    3    0    0 -1.2434089285e-01 -1.4567012141e-02 +1.2654605235e-02 1.2583026305e-01 5.1100000000e-04 0.0000e+00 1.0000e+00
  1000022  1    3    3    0    0 -4.1472904326e+02 -9.7782393411e+01 +5.5694253412e+02 2.3567449082e+03 2.2500000000e+03 0.0000e+00 0.0000e+00
      -11  1    4    4    0    0 +7.2217062520e-02 +1.9880084602e-02 -1.5244891651e-01 1.6985715994e-01 5.1100000000e-04 0.0000e+00 -1.0000e+00
  1000022  1    4    4    0    0 +4.1478116709e+02 +9.7777080339e+01 -6.1570123167e+02 2.3713270084e+03 2.2500000000e+03 0.0000e+00 0.0000e+00
<mgrwt>
<rscale>  0 0.47280008E+04</rscale>
<asrwt>0</asrwt>
<pdfrwt beam="1">  1        2 0.35918993E+00 0.47280008E+04</pdfrwt>
<pdfrwt beam="2">  1       -2 0.36825124E+00 0.47280008E+04</pdfrwt>
<totfact> 0.38395623E-02</totfact>
</mgrwt>
</event>
<event>
 8      1 +1.2359593e-08 5.33411000e+03 7.81860800e-03 7.77893700e-02
        2 -1    0    0  501    0 +0.0000000000e+00 +0.0000000000e+00 +2.0680668648e+03 2.0680668648e+03 2.5500000000e-03 0.0000e+00 1.0000e+00
       -2 -1    0    0    0  501 -0.0000000000e+00 -0.0000000000e+00 -3.4395322237e+03 3.4395322237e+03 2.5500000000e-03 0.0000e+00 -1.0000e+00
  1000011  2    1    2    0    0 -7.8145410678e+01 +1.1369211162e+03 -1.5808244231e+03 2.9766850467e+03 2.2501003713e+03 7.7766e+02 0.0000e+00
 -1000011  2    1    2    0    0 +7.8145410678e+01 -1.1369211162e+03 +2.0935906416e+02 2.5309140418e+03 2.2501107394e+03 2.3683e+00 0.0000e+00
       11  1    3    3    0    0 -3.0536889125e-02 +1.0496419929e-01 +1.2645371091e-02 1.1004613071e-01 5.1100000000e-04 0.0000e+00 1.0000e+00
  1000022  1    3    3    0    0 -7.8114873789e+01 +1.1368161520e+03 -1.5808370685e+03 2.9765750006e+03 2.2500000000e+03 0.0000e+00 0.0000e+00
      -11  1    4    4    0    0 +7.0938804305e-03 -1.2652664744e-01 -7.8407326356e-02 1.4902108964e-01 5.1100000000e-04 0.0000e+00 -1.0000e+00
  1000022  1    4    4    0    0 +7.8138316798e+01 -1.1367945896e+03 +2.0943747149e+02 2.5307650207e+03 2.2500000000e+03 0.0000e+00 0.0000e+00
<mgrwt>
<rscale>  0 0.53341101E+04</rscale>
<asrwt>0</asrwt>
<pdfrwt beam="1">  1        2 0.31816413E+00 0.53341101E+04</pdfrwt>
<pdfrwt beam="2">  1       -2 0.52915880E+00 0.53341101E+04</pdfrwt>
<totfact> 0.48586627E-03</totfact>
</mgrwt>
</event>
<event>
 8      1 +1.2359593e-08 4.53568500e+03 7.81860800e-03 7.90441900e-02
       -2 -1    0    0    0  501 -0.0000000000e+00 +0.0000000000e+00 +1.5672183496e+03 1.5672183496e+03 2.5500000000e-03 0.0000e+00 -1.0000e+00
        2 -1    0    0  501    0 +0.0000000000e+00 -0.0000000000e+00 -3.2816799318e+03 3.2816799318e+03 2.5500000000e-03 0.0000e+00 1.0000e+00
  1000011  2    1    2    0    0 +1.2386131436e+02 +2.5460223999e+02 -8.5739212717e+02 2.4245054252e+03 2.2500980804e+03 2.0737e+02 0.0000e+00
 -1000011  2    1    2    0    0 -1.2386131436e+02 -2.5460223999e+02 -8.5706945509e+02 2.4243928562e+03 2.2500997188e+03 2.8958e+01 0.0000e+00
       11  1    3    3    0    0 -3.4182569524e-02 +1.0109953118e-01 -4.4534986568e-02 1.1564250597e-01 5.1100000000e-04 0.0000e+00 1.0000e+00
  1000022  1    3    3    0    0 +1.2389549693e+02 +2.5450114046e+02 -8.5734759219e+02 2.4243897827e+03 2.2500000000e+03 0.0000e+00 0.0000e+00
      -11  1    4    4    0    0 -7.1882186197e-02 +6.0736184475e-02 -1.5783752039e-02 9.5421804091e-02 5.1100000000e-04 0.0000e+00 -1.0000e+00
  1000022  1    4    4    0    0 -1.2378943218e+02 -2.5466297618e+02 -8.5705367134e+02 2.4242974344e+03 2.2500000000e+03 0.0000e+00 0.0000e+00
<mgrwt>
<rscale>  0 0.45356847E+04</rscale>
<asrwt>0</asrwt>
<pdfrwt beam="1">  1        2 0.50487383E+00 0.45356847E+04</pdfrwt>
<pdfrwt beam="2">  1       -2 0.24111052E+00 0.45356847E+04</pdfrwt>
<totfact> 0.63032119E-02</totfact>
</mgrwt>
</event>
<event>
 8      1 +1.2359593e-08 5.49345100e+03 7.81860800e-03 7.75659100e-02
       -2 -1    0    0    0  501 -0.0000000000e+00 +0.0000000000e+00 +3.0210053285e+03 3.0210053285e+03 2.5500000000e-03 0.0000e+00 -1.0000e+00
        2 -1    0    0  501    0 +0.0000000000e+00 -0.0000000000e+00 -2.4973477235e+03 2.4973477235e+03 2.5500000000e-03 0.0000e+00 1.0000e+00
  1000011  2    1    2    0    0 +5.9111585428e+02 +1.4188292308e+03 +6.0846049164e+02 2.7920731313e+03 2.2501008558e+03 2.5434e+01 0.0000e+00
 -1000011  2    1    2    0    0 -5.9111585428e+02 -1.4188292308e+03 -8.4802886653e+01 2.7262799208e+03 2.2500925175e+03 1.6126e+02 0.0000e+00
       11  1    3    3    0    0 -6.5265770343e-02 +5.1538137082e-02 +7.0472660386e-02 1.0900668291e-01 5.1100000000e-04 0.0000e+00 1.0000e+00
  1000022  1    3    3    0    0 +5.9118112005e+02 +1.4187776927e+03 +6.0839001898e+02 2.7919641246e+03 2.2500000000e+03 0.0000e+00 0.0000e+00
      -11  1    4    4    0    0 -1.6018844816e-02 -1.5229618738e-01 +3.8457632264e-02 1.5789231215e-01 5.1100000000e-04 0.0000e+00 -1.0000e+00
  1000022  1    4    4    0    0 -5.9109983544e+02 -1.4186769346e+03 -8.4841344286e+01 2.7261220284e+03 2.2500000000e+03 0.0000e+00 0.0000e+00
<mgrwt>
<rscale>  0 0.54934509E+04</rscale>
<asrwt>0</asrwt>
<pdfrwt beam="1">  1        2 0.38420734E+00 0.54934509E+04</pdfrwt>
<pdfrwt beam="2">  1       -2 0.46477005E+00 0.54934509E+04</pdfrwt>
<totfact> 0.68215500E-03</totfact>
</mgrwt>
</event>
<event>
 8      1 +1.2359593e-08 4.96389600e+03 7.81860800e-03 7.83410100e-02
        2 -1    0    0  501    0 +0.0000000000e+00 +0.0000000000e+00 +2.5843544069e+03 2.5843544069e+03 2.5500000000e-03 0.0000e+00 1.0000e+00
       -2 -1    0    0    0  501 -0.0000000000e+00 -0.0000000000e+00 -2.3835994258e+03 2.3835994258e+03 2.5500000000e-03 0.0000e+00 -1.0000e+00
  1000011  2    1    2    0    0 -3.3095503070e+01 -8.4078943075e+02 +7.2466106284e+02 2.5092037950e+03 2.2500995200e+03 2.0662e+03 0.0000e+00
 -1000011  2    1    2    0    0 +3.3095503070e+01 +8.4078943075e+02 -5.2390608177e+02 2.4587500377e+03 2.2501004391e+03 1.2507e+03 0.0000e+00
       11  1    3    3    0    0 +2.7994560865e-02 +1.4089957993e-02 +1.1228654988e-01 1.1657938400e-01 5.1100000000e-04 0.0000e+00 1.0000e+00
  1000022  1    3    3    0    0 -3.3123497631e+01 -8.4080352071e+02 +7.2454877629e+02 2.5090872157e+03 2.2500000000e+03 0.0000e+00 0.0000e+00
      -11  1    4    4    0    0 +6.7247987523e-02 -1.7310216163e-02 -7.6277676013e-02 1.0315270210e-01 5.1100000000e-04 0.0000e+00 -1.0000e+00
  1000022  1    4    4    0    0 +3.3028255083e+01 +8.4080674097e+02 -5.2382980409e+02 2.4586468850e+03 2.2500000000e+03 0.0000e+00 0.0000e+00
<mgrwt>
<rscale>  0 0.49638959E+04</rscale>
<asrwt>0</asrwt>
<pdfrwt beam="1">  1        2 0.39759298E+00 0.49638959E+04</pdfrwt>
<pdfrwt beam="2">  1       -2 0.36670761E+00 0.49638959E+04</pdfrwt>
<totfact> 0.27661317E-02</totfact>
</mgrwt>
</event>
<event>
 8      1 +1.2359593e-08 5.94580800e+03 7.81860800e-03 7.69715800e-02
       -2 -1    0    0    0  501 -0.0000000000e+00 +0.0000000000e+00 +3.0497029056e+03 3.0497029056e+03 2.5500000000e-03 0.0000e+00 -1.0000e+00
        2 -1    0    0  501    0 +0.0000000000e+00 -0.0000000000e+00 -2.8980386374e+03 2.8980386374e+03 2.5500000000e-03 0.0000e+00 1.0000e+00
  1000011  2    1    2    0    0 -7.0361800594e+02 +6.2566540821e+02 -1.6243289438e+03 2.9305169775e+03 2.2500999393e+03 1.7839e+02 0.0000e+00
 -1000011  2    1    2    0    0 +7.0361800594e+02 -6.2566540821e+02 +1.7759932120e+03 3.0172245655e+03 2.2501014840e+03 5.8068e+02 0.0000e+00
       11  1    3    3    0    0 -9.5552773839e-02 -2.5910134967e-02 -1.4103796852e-01 1.7231841673e-01 5.1100000000e-04 0.0000e+00 1.0000e+00
  1000022  1    3    3    0    0 -7.0352245317e+02 +6.2569131834e+02 -1.6241879058e+03 2.9303446591e+03 2.2500000000e+03 0.0000e+00 0.0000e+00
      -11  1    4    4    0    0 +3.0331670774e-02 -9.3938074528e-02 +1.8985556640e-01 2.1398544046e-01 5.1100000000e-04 0.0000e+00 -1.0000e+00
  1000022  1    4    4    0    0 +7.0358767427e+02 -6.2557147013e+02 +1.7758033564e+03 3.0170105801e+03 2.2500000000e+03 0.0000e+00 0.0000e+00
<mgrwt>
<rscale>  0 0.59458075E+04</rscale>
<asrwt>0</asrwt>
<pdfrwt beam="1">  1        2 0.44585210E+00 0.59458075E+04</pdfrwt>
<pdfrwt beam="2">  1       -2 0.46918506E+00 0.59458075E+04</pdfrwt>
<totfact> 0.35581065E-03</totfact>
</mgrwt>
</event>
<event>
 8      1 +1.2359593e-08 4.69718500e+03 7.81860800e-03 7.87699600e-02
       -2 -1    0    0    0  501 -0.0000000000e+00 +0.0000000000e+00 +1.1626529935e+03 1.1626529935e+03 2.5500000000e-03 0.0000e+00 -1.0000e+00
        2 -1    0    0  501    0 +0.0000000000e+00 -0.0000000000e+00 -4.7442242974e+03 4.7442242974e+03 2.5500000000e-03 0.0000e+00 1.0000e+00
  1000011  2    1    2    0    0 +3.5062650273e+02 +5.0764511123e+02 -1.4527042311e+03 2.7484476991e+03 2.2501050349e+03 1.7682e+03 0.0000e+00
 -1000011  2    1    2    0    0 -3.5062650273e+02 -5.0764511123e+02 -2.1288670727e+03 3.1584295918e+03 2.2501022131e+03 8.7798e+02 0.0000e+00
       11  1    3    3    0    0 +1.0132709364e-01 -3.5584222711e-02 -4.7355072985e-02 1.1737197547e-01 5.1100000000e-04 0.0000e+00 1.0000e+00
  1000022  1    3    3    0    0 +3.5052517564e+02 +5.0768069545e+02 -1.4526568761e+03 2.7483303271e+03 2.2500000000e+03 0.0000e+00 0.0000e+00
      -11  1    4    4    0    0 -5.3102473125e-02 -7.9612483006e-02 -6.5513779048e-03 9.5922891933e-02 5.1100000000e-04 0.0000e+00 -1.0000e+00
  1000022  1    4    4    0    0 -3.5057340026e+02 -5.0756549875e+02 -2.1288605214e+03 3.1583336689e+03 2.2500000000e+03 0.0000e+00 0.0000e+00
<mgrwt>
<rscale>  0 0.46971849E+04</rscale>
<asrwt>0</asrwt>
<pdfrwt beam="1">  1        2 0.72988065E+00 0.46971849E+04</pdfrwt>
<pdfrwt beam="2">  1       -2 0.17886969E+00 0.46971849E+04</pdfrwt>
<totfact> 0.93433724E-03</totfact>
</mgrwt>
</event>
<event>
 8      1 +1.2359593e-08 5.62315200e+03 7.81860800e-03 7.73896700e-02
       -2 -1    0    0    0  501 -0.0000000000e+00 +0.0000000000e+00 +1.9442041594e+03 1.9442041594e+03 2.5500000000e-03 0.0000e+00 -1.0000e+00
        2 -1    0    0  501    0 +0.0000000000e+00 -0.0000000000e+00 -4.0659106554e+03 4.0659106554e+03 2.5500000000e-03 0.0000e+00 1.0000e+00
  1000011  2    1    2    0    0 +3.9598286154e+02 -5.5779069035e+02 -2.7076871290e+03 3.5864262524e+03 2.2501001742e+03 4.8248e+02 0.0000e+00
 -1000011  2    1    2    0    0 -3.9598286154e+02 +5.5779069035e+02 +5.8598063305e+02 2.4236885625e+03 2.2501022343e+03 1.9553e+02 0.0000e+00
       11  1    3    3    0    0 +1.0224740455e-01 -7.4272982320e-02 -2.0112024346e-01 2.3753025213e-01 5.1100000000e-04 0.0000e+00 1.0000e+00
  1000022  1    3    3    0    0 +3.9588061413e+02 -5.5771641737e+02 -2.7074860088e+03 3.5861887221e+03 2.2500000000e+03 0.0000e+00 0.0000e+00
      -11  1    4    4    0    0 +1.9752340613e-03 +9.4629775238e-02 -4.6009424703e-02 1.0524174074e-01 5.1100000000e-04 0.0000e+00 -1.0000e+00
  1000022  1    4    4    0    0 -3.9598483677e+02 +5.5769606058e+02 +5.8602664247e+02 2.4235833208e+03 2.2500000000e+03 0.0000e+00 0.0000e+00
<mgrwt>
<rscale>  0 0.56231523E+04</rscale>
<asrwt>0</asrwt>
<pdfrwt beam="1">  1        2 0.62552471E+00 0.56231523E+04</pdfrwt>
<pdfrwt beam="2">  1       -2 0.29910833E+00 0.56231523E+04</pdfrwt>
<totfact> 0.67003326E-03</totfact>
</mgrwt>
</event>
<event>
 8      1 +1.2359593e-08 5.23872100e+03 7.81860800e-03 7.79270100e-02
       -2 -1    0    0    0  501 -0.0000000000e+00 +0.0000000000e+00 +2.7864090635e+03 2.7864090635e+03 2.5500000000e-03 0.0000e+00 -1.0000e+00
        2 -1    0    0  501    0 +0.0000000000e+00 -0.0000000000e+00 -2.4623270910e+03 2.4623270910e+03 2.5500000000e-03 0.0000e+00 1.0000e+00
  1000011  2    1    2    0    0 +2.3937613490e+02 +1.3173903889e+03 +8.9318010510e+01 2.6198769526e+03 2.2501020352e+03 2.1109e+03 0.0000e+00
 -1000011  2    1    2    0    0 -2.3937613490e+02 -1.3173903889e+03 +2.3476396200e+02 2.6288592020e+03 2.2501040454e+03 5.2689e+02 0.0000e+00
       11  1    3    3    0    0 +2.9919950610e-02 +6.3221535994e-02 -9.6123872181e-02 1.1887903791e-01 5.1100000000e-04 0.0000e+00 1.0000e+00
  1000022  1    3    3    0    0 +2.3934621495e+02 +1.3173271674e+03 +8.9414134382e+01 2.6197580735e+03 2.2500000000e+03 0.0000e+00 0.0000e+00
      -11  1    4    4    0    0 -2.7703364419e-02 -9.3900025641e-02 +1.1181174907e-01 1.4861634976e-01 5.1100000000e-04 0.0000e+00 -1.0000e+00
  1000022  1    4    4    0    0 -2.3934843154e+02 -1.3172964889e+03 +2.3465215025e+02 2.6287105856e+03 2.2500000000e+03 0.0000e+00 0.0000e+00
<mgrwt>
<rscale>  0 0.52387214E+04</rscale>
<asrwt>0</asrwt>
<pdfrwt beam="1">  1        2 0.37881955E+00 0.52387214E+04</pdfrwt>
<pdfrwt beam="2">  1       -2 0.42867832E+00 0.52387214E+04</pdfrwt>
<totfact> 0.12588673E-02</totfact>
</mgrwt>
</event>
<event>
 8      1 +1.2359593e-08 5.00092200e+03 7.81860800e-03 7.82836500e-02
        2 -1    0    0  501    0 +0.0000000000e+00 +0.0000000000e+00 +4.0261511511e+03 4.0261511511e+03 2.5500000000e-03 0.0000e+00 1.0000e+00
       -2 -1    0    0    0  501 -0.0000000000e+00 -0.0000000000e+00 -1.5529236278e+03 1.5529236278e+03 2.5500000000e-03 0.0000e+00 -1.0000e+00
  1000011  2    1    2    0    0 -2.0427890582e+02 -1.0611694454e+03 +1.4006168462e+03 2.8622438524e+03 2.2500892999e+03 6.9021e+01 0.0000e+00
 -1000011  2    1    2    0    0 +2.0427890582e+02 +1.0611694454e+03 +1.0726106771e+03 2.7168309265e+03 2.2500813664e+03 3.3366e+02 0.0000e+00
       11  1    3    3    0    0 -2.0796920800e-02 +4.5743409659e-02 +7.8305588508e-02 9.3042987942e-02 5.1100000000e-04 0.0000e+00 1.0000e+00
  1000022  1    3    3    0    0 -2.0425810890e+02 -1.0612151888e+03 +1.4005385407e+03 2.8621508094e+03 2.2500000000e+03 0.0000e+00 0.0000e+00
      -11  1    4    4    0    0 +8.6437054341e-02 +5.1722993958e-02 +6.4084664575e-02 1.1938901811e-01 5.1100000000e-04 0.0000e+00 -1.0000e+00
  1000022  1    4    4    0    0 +2.0419246877e+02 +1.0611177224e+03 +1.0725465924e+03 2.7167115375e+03 2.2500000000e+03 0.0000e+00 0.0000e+00
<mgrwt>
<rscale>  0 0.50009220E+04</rscale>
<asrwt>0</asrwt>
<pdfrwt beam="1">  1        2 0.61940787E+00 0.50009220E+04</pdfrwt>
<pdfrwt beam="2">  1       -2 0.23891133E+00 0.50009220E+04</pdfrwt>
<totfact> 0.17755372E-02</totfact>
</mgrwt>
</event>
<event>
 8      1 +1.2359593e-08 4.98825900e+03 7.81860800e-03 7.83032100e-02
        2 -1    0    0  501    0 +0.0000000000e+00 +0.0000000000e+00 +4.1640424609e+03 4.1640424609e+03 2.5500000000e-03 0.0000e+00 1.0000e+00
       -2 -1    0    0    0  501 -0.0000000000e+00 -0.0000000000e+00 -1.4939044647e+03 1.4939044647e+03 2.5500000000e-03 0.0000e+00 -1.0000e+00
  1000011  2    1    2    0    0 +7.6249043224e+02 +7.5797452574e+02 +1.3833447049e+03 2.8517564047e+03 2.2501011040e+03 1.0365e+03 0.0000e+00
 -1000011  2    1    2    0    0 -7.6249043224e+02 -7.5797452574e+02 +1.2867932913e+03 2.8061905209e+03 2.2501002698e+03 3.7867e+02 0.0000e+00
       11  1    3    3    0    0 +8.5448092555e-02 -3.9707100606e-02 +4.6941572852e-03 9.4341540999e-02 5.1100000000e-04 0.0000e+00 1.0000e+00
  1000022  1    3    3    0    0 +7.6240498414e+02 +7.5801423284e+02 +1.3833400108e+03 2.8516620632e+03 2.2500000000e+03 0.0000e+00 0.0000e+00
      -11  1    4    4    0    0 +2.1245013143e-02 -1.1553576244e-01 +3.9439650756e-02 1.2391775370e-01 5.1100000000e-04 0.0000e+00 -1.0000e+00
  1000022  1    4    4    0    0 -7.6251167725e+02 -7.5785898998e+02 +1.2867538516e+03 2.8060666031e+03 2.2500000000e+03 0.0000e+00 0.0000e+00
<mgrwt>
<rscale>  0 0.49882589E+04</rscale>
<asrwt>0</asrwt>
<pdfrwt beam="1">  1        2 0.64062192E+00 0.49882589E+04</pdfrwt>
<pdfrwt beam="2">  1       -2 0.22983145E+00 0.49882589E+04</pdfrwt>
<totfact> 0.15504956E-02</totfact>
</mgrwt>
</event>
<event>
 8      1 +1.2359593e-08 4.99032900e+03 7.81860800e-03 7.83000100e-02
        1 -1    0    0  501    0 +0.0000000000e+00 +0.0000000000e+00 +2.6164125682e+03 2.6164125682e+03 5.0400000000e-03 0.0000e+00 1.0000e+00
       -1 -1    0    0    0  501 -0.0000000000e+00 -0.0000000000e+00 -2.3795349655e+03 2.3795349655e+03 5.0400000000e-03 0.0000e+00 -1.0000e+00
  1000011  2    1    2    0    0 -4.4011149851e+02 -9.6863777814e+02 -5.7645768440e+01 2.4896248005e+03 2.2501002947e+03 3.8931e+02 0.0000e+00
 -1000011  2    1    2    0    0 +4.4011149851e+02 +9.6863777814e+02 +2.9452337112e+02 2.5063227332e+03 2.2501005200e+03 8.4074e+02 0.0000e+00
       11  1    3    3    0    0 -8.4607579154e-02 -9.3807456681e-02 +6.1872215790e-02 1.4066525222e-01 5.1100000000e-04 0.0000e+00 1.0000e+00
  1000022  1    3    3    0    0 -4.4002689093e+02 -9.6854397069e+02 -5.7707640656e+01 2.4894841353e+03 2.2500000000e+03 0.0000e+00 0.0000e+00
      -11  1    4    4    0    0 -2.2639223269e-02 -6.1827916291e-03 -7.1706064568e-02 7.5450526350e-02 5.1100000000e-04 0.0000e+00 -1.0000e+00
  1000022  1    4    4    0    0 +4.4013413773e+02 +9.6864396094e+02 +2.9459507718e+02 2.5062472826e+03 2.2500000000e+03 0.0000e+00 0.0000e+00
<mgrwt>
<rscale>  0 0.49903287E+04</rscale>
<asrwt>0</asrwt>
<pdfrwt beam="1">  1        1 0.40252501E+00 0.49903287E+04</pdfrwt>
<pdfrwt beam="2">  1       -1 0.36608231E+00 0.49903287E+04</pdfrwt>
<totfact> 0.98570824E-03</totfact>
</mgrwt>
</event>
<event>
 8      1 +1.2359593e-08 4.84589800e+03 7.81860800e-03 7.85272900e-02
        2 -1    0    0  501    0 +0.0000000000e+00 +0.0000000000e+00 +2.7251880869e+03 2.7251880869e+03 2.5500000000e-03 0.0000e+00 1.0000e+00
       -2 -1    0    0    0  501 -0.0000000000e+00 -0.0000000000e+00 -2.1542302297e+03 2.1542302297e+03 2.5500000000e-03 0.0000e+00 -1.0000e+00
  1000011  2    1    2    0    0 -2.9451518326e+02 +7.2641702603e+02 +7.2817848960e+02 2.4915042899e+03 2.2500952924e+03 2.7314e+03 0.0000e+00
 -1000011  2    1    2    0    0 +2.9451518326e+02 -7.2641702603e+02 -1.5722063233e+02 2.3879140267e+03 2.2501098157e+03 5.3926e+03 0.0000e+00
       11  1    3    3    0    0 +2.2838079447e-02 -4.7883683671e-02 +7.3944855187e-02 9.1008392477e-02 5.1100000000e-04 0.0000e+00 1.0000e+00
  1000022  1    3    3    0    0 -2.9453802134e+02 +7.2646490971e+02 +7.2810454475e+02 2.4914132815e+03 2.2500000000e+03 0.0000e+00 0.0000e+00
      -11  1    4    4    0    0 -8.3673928858e-03 +7.7690916900e-02 +6.2972860423e-03 7.8395206580e-02 5.1100000000e-04 0.0000e+00 -1.0000e+00
  1000022  1    4    4    0    0 +2.9452355066e+02 -7.2649471695e+02 -1.5722692962e+02 2.3878356315e+03 2.2500000000e+03 0.0000e+00 0.0000e+00
<mgrwt>
<rscale>  0 0.48458983E+04</rscale>
<asrwt>0</asrwt>
<pdfrwt beam="1">  1        2 0.41925970E+00 0.48458983E+04</pdfrwt>
<pdfrwt beam="2">  1       -2 0.33142004E+00 0.48458983E+04</pdfrwt>
<totfact> 0.38448256E-02</totfact>
</mgrwt>
</event>
<event>
 8      1 +1.2359593e-08 4.95677300e+03 7.81860800e-03 7.83521000e-02
        2 -1    0    0  501    0 +0.0000000000e+00 +0.0000000000e+00 +1.8063243202e+03 1.8063243202e+03 2.5500000000e-03 0.0000e+00 1.0000e+00
       -2 -1    0    0    0  501 -0.0000000000e+00 -0.0000000000e+00 -3.4004965777e+03 3.4004965777e+03 2.5500000000e-03 0.0000e+00 -1.0000e+00
  1000011  2    1    2    0    0 +6.5651289440e+02 -6.2308507635e+02 -2.6125025756e+02 2.4393544266e+03 2.2501009152e+03 4.8289e+03 0.0000e+00
 -1000011  2    1    2    0    0 -6.5651289440e+02 +6.2308507635e+02 -1.3329220000e+03 2.7674664713e+03 2.2500989798e+03 5.0730e+02 0.0000e+00
       11  1    3    3    0    0 +3.1999838908e-02 -9.1102123627e-02 +6.7387123128e-02 1.1774918932e-01 5.1100000000e-04 0.0000e+00 1.0000e+00
  1000022  1    3    3    0    0 +6.5648089456e+02 -6.2299397422e+02 -2.6131764469e+02 2.4392366774e+03 2.2500000000e+03 0.0000e+00 0.0000e+00
      -11  1    4    4    0    0 -1.2027310245e-01 -4.1699174381e-03 -9.8445303237e-02 1.5548230145e-01 5.1100000000e-04 0.0000e+00 -1.0000e+00
  1000022  1    4    4    0    0 -6.5639262130e+02 +6.2308924626e+02 -1.3328235547e+03 2.7673109890e+03 2.2500000000e+03 0.0000e+00 0.0000e+00
<mgrwt>
<rscale>  0 0.49567730E+04</rscale>
<asrwt>0</asrwt>
<pdfrwt beam="1">  1        2 0.27789605E+00 0.49567730E+04</pdfrwt>
<pdfrwt beam="2">  1       -2 0.52315332E+00 0.49567730E+04</pdfrwt>
<totfact> 0.75511297E-03</totfact>
</mgrwt>
</event>
<event>
 8      1 +1.2359593e-08 5.32921400e+03 7.81860800e-03 7.77963700e-02
        2 -1    0    0  501    0 +0.0000000000e+00 +0.0000000000e+00 +3.2018263863e+03 3.2018263863e+03 2.5500000000e-03 0.0000e+00 1.0000e+00
       -2 -1    0    0    0  501 -0.0000000000e+00 -0.0000000000e+00 -2.2175248040e+03 2.2175248040e+03 2.5500000000e-03 0.0000e+00 -1.0000e+00
  1000011  2    1    2    0    0 -3.4359320878e+02 +6.5928089886e+02 +1.7311499949e+03 2.9347112894e+03 2.2500983203e+03 8.8682e+01 0.0000e+00
 -1000011  2    1    2    0    0 +3.4359320878e+02 -6.5928089886e+02 -7.4684841263e+02 2.4846399009e+03 2.2500989509e+03 1.0752e+03 0.0000e+00
       11  1    3    3    0    0 -1.3284020595e-02 -5.9850784922e-02 -3.5283774222e-03 6.1410843206e-02 5.1100000000e-04 0.0000e+00 1.0000e+00
  1000022  1    3    3    0    0 -3.4357992476e+02 +6.5934074964e+02 +1.7311535233e+03 2.9346498786e+03 2.2500000000e+03 0.0000e+00 0.0000e+00
      -11  1    4    4    0    0 -2.6003215205e-02 +2.8236790925e-02 -1.0230641294e-01 1.0927189169e-01 5.1100000000e-04 0.0000e+00 -1.0000e+00
  1000022  1    4    4    0    0 +3.4361921200e+02 -6.5930913565e+02 -7.4674610621e+02 2.4845306290e+03 2.2500000000e+03 0.0000e+00 0.0000e+00
<mgrwt>
<rscale>  0 0.53292136E+04</rscale>
<asrwt>0</asrwt>
<pdfrwt beam="1">  1        2 0.49258867E+00 0.53292136E+04</pdfrwt>
<pdfrwt beam="2">  1       -2 0.34115766E+00 0.53292136E+04</pdfrwt>
<totfact> 0.16205799E-02</totfact>
</mgrwt>
</event>
<event>
 8      1 +1.2359593e-08 5.40381200e+03 7.81860800e-03 7.76906500e-02
       -2 -1    0    0    0  501 -0.0000000000e+00 +0.0000000000e+00 +2.1684056087e+03 2.1684056087e+03 2.5500000000e-03 0.0000e+00 -1.0000e+00
        2 -1    0    0  501    0 +0.0000000000e+00 -0.0000000000e+00 -3.3666653986e+03 3.3666653986e+03 2.5500000000e-03 0.0000e+00 1.0000e+00
  1000011  2    1    2    0    0 +1.1195291717e+03 -9.7242518741e+02 -7.9984915736e+02 2.8109853542e+03 2.2500941481e+03 2.6048e+01 0.0000e+00
 -1000011  2    1    2    0    0 -1.1195291717e+03 +9.7242518741e+02 -3.9841063254e+02 2.7240856531e+03 2.2501011759e+03 1.9856e+02 0.0000e+00
       11  1    3    3    0    0 +1.4320799151e-02 +3.4368214119e-02 -8.5890419577e-02 9.3614552643e-02 5.1100000000e-04 0.0000e+00 1.0000e+00
  1000022  1    3    3    0    0 +1.1195148509e+03 -9.7245955562e+02 -7.9976326694e+02 2.8108917396e+03 2.2500000000e+03 0.0000e+00 0.0000e+00
      -11  1    4    4    0    0 -2.6716722526e-02 +8.3246220123e-02 +7.2606438890e-02 1.1364713723e-01 5.1100000000e-04 0.0000e+00 -1.0000e+00
  1000022  1    4    4    0    0 -1.1195024550e+03 +9.7234194119e+02 -3.9848323898e+02 2.7239720059e+03 2.2500000000e+03 0.0000e+00 0.0000e+00
<mgrwt>
<rscale>  0 0.54038120E+04</rscale>
<asrwt>0</asrwt>
<pdfrwt beam="1">  1        2 0.51794852E+00 0.54038120E+04</pdfrwt>
<pdfrwt beam="2">  1       -2 0.33360086E+00 0.54038120E+04</pdfrwt>
<totfact> 0.13944020E-02</totfact>
</mgrwt>
</event>
<event>
 8      1 +1.2359593e-08 5.79906500e+03 7.81860800e-03 7.71582700e-02
       -2 -1    0    0    0  501 -0.0000000000e+00 +0.0000000000e+00 +4.2005243020e+03 4.2005243020e+03 2.5500000000e-03 0.0000e+00 -1.0000e+00
        2 -1    0    0  501    0 +0.0000000000e+00 -0.0000000000e+00 -2.0014853079e+03 2.0014853079e+03 2.5500000000e-03 0.0000e+00 1.0000e+00
  1000011  2    1    2    0    0 +1.3927586812e+03 -1.9433466008e+02 -1.5081948878e+02 2.6576722818e+03 2.2500961613e+03 1.6177e+03 0.0000e+00
 -1000011  2    1    2    0    0 -1.3927586812e+03 +1.9433466008e+02 +2.3498584829e+03 3.5443373282e+03 2.2500998872e+03 3.3231e+02 0.0000e+00
       11  1    3    3    0    0 +1.4920621584e-01 +1.0816265579e-02 -6.3197402616e-02 1.6239968940e-01 5.1100000000e-04 0.0000e+00 1.0000e+00
  1000022  1    3    3    0    0 +1.3926094750e+03 -1.9434547635e+02 -1.5075629138e+02 2.6575098821e+03 2.2500000000e+03 0.0000e+00 0.0000e+00
      -11  1    4    4    0    0 -1.1383143704e-01 -7.8687767908e-02 +1.3516179307e-01 1.9343818698e-01 5.1100000000e-04 0.0000e+00 -1.0000e+00
  1000022  1    4    4    0    0 -1.3926448498e+03 +1.9441334785e+02 +2.3497233211e+03 3.5441438900e+03 2.2500000000e+03 0.0000e+00 0.0000e+00
<mgrwt>
<rscale>  0 0.57990646E+04</rscale>
<asrwt>0</asrwt>
<pdfrwt beam="1">  1        2 0.30792082E+00 0.57990646E+04</pdfrwt>
<pdfrwt beam="2">  1       -2 0.64623450E+00 0.57990646E+04</pdfrwt>
<totfact> 0.16072243E-03</totfact>
</mgrwt>
</event>
<event>
 8      1 +1.2359593e-08 4.93412100e+03 7.81860800e-03 7.83875100e-02
        2 -1    0    0  501    0 +0.0000000000e+00 +0.0000000000e+00 +2.7559335758e+03 2.7559335758e+03 2.5500000000e-03 0.0000e+00 1.0000e+00
       -2 -1    0    0    0  501 -0.0000000000e+00 -0.0000000000e+00 -2.2084665084e+03 2.2084665084e+03 2.5500000000e-03 0.0000e+00 -1.0000e+00
  1000011  2    1    2    0    0 -6.5003606352e+02 -7.7468802429e+02 +3.0084921271e+02 2.4851801911e+03 2.2500937568e+03 2.0434e+03 0.0000e+00
 -1000011  2    1    2    0    0 +6.5003606352e+02 +7.7468802429e+02 +2.4661785473e+02 2.4792198931e+03 2.2501161066e+03 1.3264e+03 0.0000e+00
       11  1    3    3    0    0 -1.0593420374e-01 -9.6824834405e-02 +2.7160639361e-02 1.4606527743e-01 5.1100000000e-04 0.0000e+00 1.0000e+00
  1000022  1    3    3    0    0 -6.4993012931e+02 -7.7459119946e+02 +3.0082205207e+02 2.4850341258e+03 2.2500000000e+03 0.0000e+00 0.0000e+00
      -11  1    4    4    0    0 -1.1779174455e-02 +1.4878069751e-01 +5.9141939562e-03 1.4936426341e-01 5.1100000000e-04 0.0000e+00 -1.0000e+00
  1000022  1    4    4    0    0 +6.5004784269e+02 +7.7453924359e+02 +2.4661194053e+02 2.4790705288e+03 2.2500000000e+03 0.0000e+00 0.0000e+00
<mgrwt>
<rscale>  0 0.49341208E+04</rscale>
<asrwt>0</asrwt>
<pdfrwt beam="1">  1        2 0.42398978E+00 0.49341208E+04</pdfrwt>
<pdfrwt beam="2">  1       -2 0.33976408E+00 0.49341208E+04</pdfrwt>
<totfact> 0.32457694E-02</totfact>
</mgrwt>
</event>
<event>
 8      1 +1.2359593e-08 4.90348700e+03 7.81860800e-03 7.84357000e-02
        2 -1    0    0  501    0 +0.0000000000e+00 +0.0000000000e+00 +2.3279326113e+03 2.3279326113e+03 2.5500000000e-03 0.0000e+00 1.0000e+00
       -2 -1    0    0    0  501 -0.0000000000e+00 -0.0000000000e+00 -2.5821393935e+03 2.5821393935e+03 2.5500000000e-03 0.0000e+00 -1.0000e+00
  1000011  2    1    2    0    0 -2.1355180436e+01 -9.3810080762e+02 +1.3319455186e+02 2.4415493549e+03 2.2500962857e+03 5.5708e+02 0.0000e+00
 -1000011  2    1    2    0    0 +2.1355180436e+01 +9.3810080762e+02 -3.8740133410e+02 2.4685226498e+03 2.2501189102e+03 4.9751e+01 0.0000e+00
       11  1    3    3    0    0 +5.4590700673e-02 -1.1611779463e-01 -2.8049047733e-02 1.3134114645e-01 5.1100000000e-04 0.0000e+00 1.0000e+00
  1000022  1    3    3    0    0 -2.1409771136e+01 -9.3798468983e+02 +1.3322260091e+02 2.4414180138e+03 2.2500000000e+03 0.0000e+00 0.0000e+00
      -11  1    4    4    0    0 +9.3596112013e-02 +1.3090469839e-01 -2.7702186508e-02 1.6329097923e-01 5.1100000000e-04 0.0000e+00 -1.0000e+00
  1000022  1    4    4    0    0 +2.1261584324e+01 +9.3796990293e+02 -3.8737363191e+02 2.4683593589e+03 2.2500000000e+03 0.0000e+00 0.0000e+00
<mgrwt>
<rscale>  0 0.49034871E+04</rscale>
<asrwt>0</asrwt>
<pdfrwt beam="1">  1        2 0.35814348E+00 0.49034871E+04</pdfrwt>
<pdfrwt beam="2">  1       -2 0.39725221E+00 0.49034871E+04</pdfrwt>
<totfact> 0.24819006E-02</totfact>
</mgrwt>
</event>
<event>
 8      1 +1.2359593e-08 4.84693100e+03 7.81860800e-03 7.85256300e-02
       -2 -1    0    0    0  501 -0.0000000000e+00 +0.0000000000e+00 +2.5958305777e+03 2.5958305777e+03 2.5500000000e-03 0.0000e+00 -1.0000e+00
        2 -1    0    0  501    0 +0.0000000000e+00 -0.0000000000e+00 -2.2625451284e+03 2.2625451284e+03 2.5500000000e-03 0.0000e+00 1.0000e+00
  1000011  2    1    2    0    0 -7.0481172319e+02 -3.2990672360e+02 +6.2001658544e+02 2.4602811180e+03 2.2501032425e+03 2.6325e+02 0.0000e+00
 -1000011  2    1    2    0    0 +7.0481172319e+02 +3.2990672360e+02 -2.8673113614e+02 2.3980945880e+03 2.2501210850e+03 1.2210e+03 0.0000e+00
       11  1    3    3    0    0 -1.2240408821e-01 +5.9210099341e-03 +8.7994644701e-02 1.5086794716e-01 5.1100000000e-04 0.0000e+00 1.0000e+00
  1000022  1    3    3    0    0 -7.0468931910e+02 -3.2991264461e+02 +6.1992859080e+02 2.4601302501e+03 2.2500000000e+03 0.0000e+00 0.0000e+00
      -11  1    4    4    0    0 +3.1990929326e-02 +1.2503503207e-01 +4.0744137566e-02 1.3534224793e-01 5.1100000000e-04 0.0000e+00 -1.0000e+00
  1000022  1    4    4    0    0 +7.0477973226e+02 +3.2978168857e+02 -2.8677188028e+02 2.3979592458e+03 2.2500000000e+03 0.0000e+00 0.0000e+00
<mgrwt>
<rscale>  0 0.48469305E+04</rscale>
<asrwt>0</asrwt>
<pdfrwt beam="1">  1        2 0.34808387E+00 0.48469305E+04</pdfrwt>
<pdfrwt beam="2">  1       -2 0.39935855E+00 0.48469305E+04</pdfrwt>
<totfact> 0.26306555E-02</totfact>
</mgrwt>
</event>
<event>
 8      1 +1.2359593e-08 4.75853400e+03 7.81860800e-03 7.86687500e-02
        2 -1    0    0  501    0 +0.0000000000e+00 +0.0000000000e+00 +3.1067363725e+03 3.1067363725e+03 2.5500000000e-03 0.0000e+00 1.0000e+00
       -2 -1    0    0    0  501 -0.0000000000e+00 -0.0000000000e+00 -1.8221406256e+03 1.8221406256e+03 2.5500000000e-03 0.0000e+00 -1.0000e+00
  1000011  2    1    2    0    0 +1.8070663301e+02 +5.5996109916e+01 +1.4189173051e+03 2.6668452992e+03 2.2500993489e+03 1.3367e+03 0.0000e+00
 -1000011  2    1    2    0    0 -1.8070663301e+02 -5.5996109916e+01 -1.3432155822e+02 2.2620316989e+03 2.2501010365e+03 2.7530e+02 0.0000e+00
       11  1    3    3    0    0 +6.3323243744e-02 +8.5200579372e-02 +6.4213055189e-02 1.2406671212e-01 5.1100000000e-04 0.0000e+00 1.0000e+00
  1000022  1    3    3    0    0 +1.8064330977e+02 +5.5910909337e+01 +1.4188530921e+03 2.6667212325e+03 2.2500000000e+03 0.0000e+00 0.0000e+00
      -11  1    4    4    0    0 -8.6665708843e-02 -6.6469029999e-02 -3.4836545453e-03 1.0927704895e-01 5.1100000000e-04 0.0000e+00 -1.0000e+00
  1000022  1    4    4    0    0 -1.8061996730e+02 -5.5929640886e+01 -1.3431807457e+02 2.2619224219e+03 2.2500000000e+03 0.0000e+00 0.0000e+00
<mgrwt>
<rscale>  0 0.47585336E+04</rscale>
<asrwt>0</asrwt>
<pdfrwt beam="1">  1        2 0.47795944E+00 0.47585336E+04</pdfrwt>
<pdfrwt beam="2">  1       -2 0.28032933E+00 0.47585336E+04</pdfrwt>
<totfact> 0.46315571E-02</totfact>
</mgrwt>
</event>
<event>
 8      1 +1.2359593e-08 5.92074300e+03 7.81860800e-03 7.70030700e-02
        2 -1    0    0  501    0 +0.0000000000e+00 +0.0000000000e+00 +3.4945056573e+03 3.4945056573e+03 2.5500000000e-03 0.0000e+00 1.0000e+00
       -2 -1    0    0    0  501 -0.0000000000e+00 -0.0000000000e+00 -2.5078795295e+03 2.5078795295e+03 2.5500000000e-03 0.0000e+00 -1.0000e+00
  1000011  2    1    2    0    0 +1.8352343879e+03 -1.9776760299e+02 -5.6060312827e+01 2.9108907575e+03 2.2500988779e+03 4.6191e+02 0.0000e+00
 -1000011  2    1    2    0    0 -1.8352343879e+03 +1.9776760299e+02 +1.0426864407e+03 3.0914944293e+03 2.2500989999e+03 1.4436e+03 0.0000e+00
       11  1    3    3    0    0 +6.7175842322e-02 +7.2437494473e-02 +5.4466289040e-02 1.1281232931e-01 5.1100000000e-04 0.0000e+00 1.0000e+00
  1000022  1    3    3    0    0 +1.8351672120e+03 -1.9784004048e+02 -5.6114779116e+01 2.9107779452e+03 2.2500000000e+03 0.0000e+00 0.0000e+00
      -11  1    4    4    0    0 +1.6860502873e-02 -2.7607947735e-02 -3.5754724786e-02 4.8219670946e-02 5.1100000000e-04 0.0000e+00 -1.0000e+00
  1000022  1    4    4    0    0 -1.8352512484e+03 +1.9779521094e+02 +1.0427221954e+03 3.0914462096e+03 2.2500000000e+03 0.0000e+00 0.0000e+00
<mgrwt>
<rscale>  0 0.59207429E+04</rscale>
<asrwt>0</asrwt>
<pdfrwt beam="1">  1        2 0.53761625E+00 0.59207429E+04</pdfrwt>
<pdfrwt beam="2">  1       -2 0.38582762E+00 0.59207429E+04</pdfrwt>
<totfact> 0.50924180E-03</totfact>
</mgrwt>
</event>
<event>
 8      1 +1.2359593e-08 5.08238900e+03 7.81860800e-03 7.81592200e-02
        2 -1    0    0  501    0 +0.0000000000e+00 +0.0000000000e+00 +4.6359132181e+03 4.6359132181e+03 2.5500000000e-03 0.0000e+00 1.0000e+00
       -2 -1    0    0    0  501 -0.0000000000e+00 -0.0000000000e+00 -1.3929659523e+03 1.3929659523e+03 2.5500000000e-03 0.0000e+00 -1.0000e+00
  1000011  2    1    2    0    0 +2.9482481412e+02 -2.6867401952e+02 +3.0288535065e+02 2.3051667856e+03 2.2500993254e+03 4.4116e+03 0.0000e+00
 -1000011  2    1    2    0    0 -2.9482481412e+02 +2.6867401952e+02 +2.9400619152e+03 3.7237123848e+03 2.2501027664e+03 9.8946e+02 0.0000e+00
       11  1    3    3    0    0 +8.3005039056e-02 -8.1302692243e-02 +3.6794754179e-02 1.2187731002e-01 5.1100000000e-04 0.0000e+00 1.0000e+00
  1000022  1    3    3    0    0 +2.9474180908e+02 -2.6859271683e+02 +3.0284855589e+02 2.3050449083e+03 2.2500000000e+03 0.0000e+00 0.0000e+00
      -11  1    4    4    0    0 +3.9005156454e-02 -6.1683572967e-02 +3.1658317467e-02 7.9553600645e-02 5.1100000000e-04 0.0000e+00 -1.0000e+00
  1000022  1    4    4    0    0 -2.9486381928e+02 +2.6873570310e+02 +2.9400302569e+03 3.7236328312e+03 2.2500000000e+03 0.0000e+00 0.0000e+00
<mgrwt>
<rscale>  0 0.50823889E+04</rscale>
<asrwt>0</asrwt>
<pdfrwt beam="1">  1        2 0.71321742E+00 0.50823889E+04</pdfrwt>
<pdfrwt beam="2">  1       -2 0.21430245E+00 0.50823889E+04</pdfrwt>
<totfact> 0.68908541E-03</totfact>
</mgrwt>
</event>
<event>
 8      1 +1.2359593e-08 4.83294300e+03 7.81860800e-03 7.85480700e-02
       -2 -1    0    0    0  501 -0.0000000000e+00 +0.0000000000e+00 +1.3601500133e+03 1.3601500133e+03 2.5500000000e-03 0.0000e+00 -1.0000e+00
        2 -1    0    0  501    0 +0.0000000000e+00 -0.0000000000e+00 -4.2931555508e+03 4.2931555508e+03 2.5500000000e-03 0.0000e+00 1.0000e+00
  1000011  2    1    2    0    0 +3.1577218032e+02 -3.1572284213e+02 -2.3550389795e+03 3.2876371307e+03 2.2501014032e+03 2.0173e+03 0.0000e+00
 -1000011  2    1    2    0    0 -3.1577218032e+02 +3.1572284213e+02 -5.7796655801e+02 2.3656684334e+03 2.2500997338e+03 2.5962e+02 0.0000e+00
       11  1    3    3    0    0 +8.6023305984e-02 -5.9890901422e-02 -2.0510516236e-01 2.3033739989e-01 5.1100000000e-04 0.0000e+00 1.0000e+00
  1000022  1    3    3    0    0 +3.1568615701e+02 -3.1566295123e+02 -2.3548338744e+03 3.2874067933e+03 2.2500000000e+03 0.0000e+00 0.0000e+00
      -11  1    4    4    0    0 -2.4988752275e-03 -3.4796827237e-02 +6.5795711980e-02 7.4474156880e-02 5.1100000000e-04 0.0000e+00 -1.0000e+00
  1000022  1    4    4    0    0 -3.1576968145e+02 +3.1575763896e+02 -5.7803235372e+02 2.3655939593e+03 2.2500000000e+03 0.0000e+00 0.0000e+00
<mgrwt>
<rscale>  0 0.48329434E+04</rscale>
<asrwt>0</asrwt>
<pdfrwt beam="1">  1        2 0.66048546E+00 0.48329434E+04</pdfrwt>
<pdfrwt beam="2">  1       -2 0.20925385E+00 0.48329434E+04</pdfrwt>
<totfact> 0.16317734E-02</totfact>
</mgrwt>
</event>
<event>
 8      1 +1.2359593e-08 5.97321500e+03 7.81860800e-03 7.69373200e-02
       -2 -1    0    0    0  501 -0.0000000000e+00 +0.0000000000e+00 +2.4172231714e+03 2.4172231714e+03 2.5500000000e-03 0.0000e+00 -1.0000e+00
        2 -1    0    0  501    0 +0.0000000000e+00 -0.0000000000e+00 -3.6901116669e+03 3.6901116669e+03 2.5500000000e-03 0.0000e+00 1.0000e+00
  1000011  2    1    2    0    0 +1.6821126114e+03 +6.2760963627e+02 -1.4502293933e+03 3.2232762002e+03 2.2500994371e+03 5.3481e+02 0.0000e+00
 -1000011  2    1    2    0    0 -1.6821126114e+03 -6.2760963627e+02 +1.7734089788e+02 2.8840586381e+03 2.2500994958e+03 1.5802e+03 0.0000e+00
       11  1    3    3    0    0 +6.9750419719e-02 +4.0829709648e-02 -1.7442672277e-01 1.9224236930e-01 5.1100000000e-04 0.0000e+00 1.0000e+00
  1000022  1    3    3    0    0 +1.6820428610e+03 +6.2756880656e+02 -1.4500549666e+03 3.2230839579e+03 2.2500000000e+03 0.0000e+00 0.0000e+00
      -11  1    4    4    0    0 +2.1780557565e-02 +1.7028874842e-02 +5.8624971345e-02 6.4819160684e-02 5.1100000000e-04 0.0000e+00 -1.0000e+00
  1000022  1    4    4    0    0 -1.6821343920e+03 -6.2762666515e+02 +1.7728227291e+02 2.8839938190e+03 2.2500000000e+03 0.0000e+00 0.0000e+00
<mgrwt>
<rscale>  0 0.59732147E+04</rscale>
<asrwt>0</asrwt>
<pdfrwt beam="1">  1        2 0.56770949E+00 0.59732147E+04</pdfrwt>
<pdfrwt beam="2">  1       -2 0.37188049E+00 0.59732147E+04</pdfrwt>
<totfact> 0.45088926E-03</totfact>
</mgrwt>
</event>
<event>
 8      1 +1.2359593e-08 4.88556300e+03 7.81860800e-03 7.84640700e-02
        2 -1    0    0  501    0 +0.0000000000e+00 +0.0000000000e+00 +1.6999313354e+03 1.6999313354e+03 2.5500000000e-03 0.0000e+00 1.0000e+00
       -2 -1    0    0    0  501 -0.0000000000e+00 -0.0000000000e+00 -3.5102482166e+03 3.5102482166e+03 2.5500000000e-03 0.0000e+00 -1.0000e+00
  1000011  2    1    2    0    0 +5.6383801755e+02 -7.2484019616e+02 -6.4192077308e+02 2.5136256064e+03 2.2500988401e+03 1.9920e+01 0.0000e+00
 -1000011  2    1    2    0    0 -5.6383801755e+02 +7.2484019616e+02 -1.1683961081e+03 2.6965539457e+03 2.2500993526e+03 1.2709e+02 0.0000e+00
       11  1    3    3    0    0 +6.8740036142e-02 +4.6672347438e-03 +5.5389806684e-02 8.8403997788e-02 5.1100000000e-04 0.0000e+00 1.0000e+00
  1000022  1    3    3    0    0 +5.6376927751e+02 -7.2484486340e+02 -6.4197616289e+02 2.5135372024e+03 2.2500000000e+03 0.0000e+00 0.0000e+00
      -11  1    4    4    0    0 -9.3256294989e-02 -3.6939915347e-02 -7.3276231920e-02 1.2422141897e-01 5.1100000000e-04 0.0000e+00 -1.0000e+00
  1000022  1    4    4    0    0 -5.6374476125e+02 +7.2487713608e+02 -1.1683228319e+03 2.6964297242e+03 2.2500000000e+03 0.0000e+00 0.0000e+00
<mgrwt>
<rscale>  0 0.48855628E+04</rscale>
<asrwt>0</asrwt>
<pdfrwt beam="1">  1        2 0.26152790E+00 0.48855628E+04</pdfrwt>
<pdfrwt beam="2">  1       -2 0.54003819E+00 0.48855628E+04</pdfrwt>
<totfact> 0.70030640E-03</totfact>
</mgrwt>
</event>
<event>
 8      1 +1.2359593e-08 4.61066300e+03 7.81860800e-03 7.89154400e-02
       -1 -1    0    0    0  501 -0.0000000000e+00 +0.0000000000e+00 +1.6054307145e+03 1.6054307145e+03 5.0400000000e-03 0.0000e+00 -1.0000e+00
        1 -1    0    0  501    0 +0.0000000000e+00 -0.0000000000e+00 -3.3103596509e+03 3.3103596509e+03 5.0400000000e-03 0.0000e+00 1.0000e+00
  1000011  2    1    2    0    0 -3.2850681818e+02 -3.8436215888e+01 -1.2545188088e+03 2.5973391797e+03 2.2501020644e+03 1.3100e+02 0.0000e+00
 -1000011  2    1    2    0    0 +3.2850681818e+02 +3.8436215888e+01 -4.5041012760e+02 2.3184511858e+03 2.2501005634e+03 1.4530e+03 0.0000e+00
       11  1    3    3    0    0 -3.5129146982e-02 -5.4555490726e-03 -1.7276816966e-01 1.7638855241e-01 5.1100000000e-04 0.0000e+00 1.0000e+00
  1000022  1    3    3    0    0 -3.2847168903e+02 -3.8430760339e+01 -1.2543460407e+03 2.5971627911e+03 2.2500000000e+03 0.0000e+00 0.0000e+00
      -11  1    4    4    0    0 -1.0258996058e-02 +3.7550080004e-03 +7.9931892274e-02 8.0676608173e-02 5.1100000000e-04 0.0000e+00 -1.0000e+00
  1000022  1    4    4    0    0 +3.2851707717e+02 +3.8432460880e+01 -4.5049005950e+02 2.3183705092e+03 2.2500000000e+03 0.0000e+00 0.0000e+00
<mgrwt>
<rscale>  0 0.46106629E+04</rscale>
<asrwt>0</asrwt>
<pdfrwt beam="1">  1        1 0.50928610E+00 0.46106629E+04</pdfrwt>
<pdfrwt beam="2">  1       -1 0.24698934E+00 0.46106629E+04</pdfrwt>
<totfact> 0.19037843E-02</totfact>
</mgrwt>
</event>
<event>
 8      1 +1.2359593e-08 4.82330400e+03 7.81860800e-03 7.85635800e-02
       -2 -1    0    0    0  501 -0.0000000000e+00 +0.0000000000e+00 +3.0784595632e+03 3.0784595632e+03 2.5500000000e-03 0.0000e+00 -1.0000e+00
        2 -1    0    0  501    0 +0.0000000000e+00 -0.0000000000e+00 -1.8892774588e+03 1.8892774588e+03 2.5500000000e-03 0.0000e+00 1.0000e+00
  1000011  2    1    2    0    0 +8.2905345358e+02 -4.7919084638e+01 +3.3508605468e+02 2.4217492828e+03 2.2501024548e+03 4.5858e+01 0.0000e+00
 -1000011  2    1    2    0    0 -8.2905345358e+02 +4.7919084638e+01 +8.5409604964e+02 2.5459877392e+03 2.2500994730e+03 3.1010e+02 0.0000e+00
       11  1    3    3    0    0 +5.9673455025e-02 -3.5728784071e-02 -7.9157335765e-02 1.0537367712e-01 5.1100000000e-04 0.0000e+00 1.0000e+00
  1000022  1    3    3    0    0 +8.2899378012e+02 -4.7883355854e+01 +3.3516521202e+02 2.4216439091e+03 2.2500000000e+03 0.0000e+00 0.0000e+00
      -11  1    4    4    0    0 +4.5363770421e-02 +6.4556136872e-02 +2.6005098897e-02 8.3077631600e-02 5.1100000000e-04 0.0000e+00 -1.0000e+00
  1000022  1    4    4    0    0 -8.2909881735e+02 +4.7854528501e+01 +8.5407004454e+02 2.5459046616e+03 2.2500000000e+03 0.0000e+00 0.0000e+00
<mgrwt>
<rscale>  0 0.48233035E+04</rscale>
<asrwt>0</asrwt>
<pdfrwt beam="1">  1        2 0.29065807E+00 0.48233035E+04</pdfrwt>
<pdfrwt beam="2">  1       -2 0.47360916E+00 0.48233035E+04</pdfrwt>
<totfact> 0.13856851E-02</totfact>
</mgrwt>
</event>
<event>
 8      1 +1.2359593e-08 4.59122200e+03 7.81860800e-03 7.89485800e-02
        2 -1    0    0  501    0 +0.0000000000e+00 +0.0000000000e+00 +2.5886194783e+03 2.5886194783e+03 2.5500000000e-03 0.0000e+00 1.0000e+00
       -2 -1    0    0    0  501 -0.0000000000e+00 -0.0000000000e+00 -2.0357685911e+03 2.0357685911e+03 2.5500000000e-03 0.0000e+00 -1.0000e+00
  1000011  2    1    2    0    0 -3.1177285428e+02 +1.8772944146e+02 +1.6261852655e+00 2.2793424022e+03 2.2501009947e+03 8.8875e+01 0.0000e+00
 -1000011  2    1    2    0    0 +3.1177285428e+02 -1.8772944146e+02 +5.5122470196e+02 2.3450456672e+03 2.2500990764e+03 1.0563e+03 0.0000e+00
       11  1    3    3    0    0 -6.2067424053e-02 +1.2314451357e-02 +8.9075287421e-02 1.0926425981e-01 5.1100000000e-04 0.0000e+00 1.0000e+00
  1000022  1    3    3    0    0 -3.1171078686e+02 +1.8771712701e+02 +1.5371099781e+00 2.2792331379e+03 2.2500000000e+03 0.0000e+00 0.0000e+00
      -11  1    4    4    0    0 -2.3349403862e-02 -9.9548722158e-02 +3.5855451168e-02 1.0835597303e-01 5.1100000000e-04 0.0000e+00 -1.0000e+00
  1000022  1    4    4    0    0 +3.1179620369e+02 -1.8762989274e+02 +5.5118884651e+02 2.3449373113e+03 2.2500000000e+03 0.0000e+00 0.0000e+00
<mgrwt>
<rscale>  0 0.45912222E+04</rscale>
<asrwt>0</asrwt>
<pdfrwt beam="1">  1        2 0.39824915E+00 0.45912222E+04</pdfrwt>
<pdfrwt beam="2">  1       -2 0.31319517E+00 0.45912222E+04</pdfrwt>
<totfact> 0.61302837E-02</totfact>
</mgrwt>
</event>
<event>
 8      1 +1.2359593e-08 5.79965200e+03 7.81860800e-03 7.71575100e-02
       -2 -1    0    0    0  501 -0.0000000000e+00 +0.0000000000e+00 +3.9500694076e+03 3.9500694076e+03 2.5500000000e-03 0.0000e+00 1.0000e+00
        2 -1    0    0  501    0 +0.0000000000e+00 -0.0000000000e+00 -2.1288211135e+03 2.1288211135e+03 2.5500000000e-03 0.0000e+00 -1.0000e+00
  1000011  2    1    2    0    0 +1.2678233279e+03 -4.4120199754e+02 +2.2130329427e+03 3.4296497244e+03 2.2500993830e+03 2.1250e+03 0.0000e+00
 -1000011  2    1    2    0    0 -1.2678233279e+03 +4.4120199754e+02 -3.9178464864e+02 2.6492407966e+03 2.2500991965e+03 8.6402e+02 0.0000e+00
       11  1    3    3    0    0 +8.8653225472e-02 +5.0936610285e-02 +1.8246170400e-01 2.0915656123e-01 5.1100000000e-04 0.0000e+00 1.0000e+00
  1000022  1    3    3    0    0 +1.2677346747e+03 -4.4125293415e+02 +2.2128504810e+03 3.4294405679e+03 2.2500000000e+03 0.0000e+00 0.0000e+00
      -11  1    4    4    0    0 -1.4688040844e-01 +3.7290312609e-02 -8.3728290317e-02 1.7313321231e-01 5.1100000000e-04 0.0000e+00 -1.0000e+00
  1000022  1    4    4    0    0 -1.2676764475e+03 +4.4116470723e+02 -3.9170092035e+02 2.6490676634e+03 2.2500000000e+03 0.0000e+00 0.0000e+00
<mgrwt>
<rscale>  0 0.57996521E+04</rscale>
<asrwt>0</asrwt>
<pdfrwt beam="1">  1        2 0.32751094E+00 0.57996521E+04</pdfrwt>
<pdfrwt beam="2">  1       -2 0.60770299E+00 0.57996521E+04</pdfrwt>
<totfact> 0.18698754E-03</totfact>
</mgrwt>
</event>
<event>
 8      1 +1.2359593e-08 5.27111300e+03 7.81860800e-03 7.78799400e-02
        2 -1    0    0  501    0 +0.0000000000e+00 +0.0000000000e+00 +1.8809792927e+03 1.8809792927e+03 2.5500000000e-03 0.0000e+00 1.0000e+00
       -2 -1    0    0    0  501 -0.0000000000e+00 -0.0000000000e+00 -3.6928416517e+03 3.6928416517e+03 2.5500000000e-03 0.0000e+00 -1.0000e+00
  1000011  2    1    2    0    0 -1.0998047654e+03 +7.7394347034e+02 -1.1948451354e+03 2.8808254551e+03 2.2500980841e+03 2.9993e+02 0.0000e+00
 -1000011  2    1    2    0    0 +1.0998047654e+03 -7.7394347034e+02 -6.1701722366e+02 2.6929954894e+03 2.2501012053e+03 4.3970e+03 0.0000e+00
       11  1    3    3    0    0 +2.4657805984e-02 -3.6163714287e-02 +2.1257967201e-02 4.8661933441e-02 5.1100000000e-04 0.0000e+00 1.0000e+00
  1000022  1    3    3    0    0 -1.0998294232e+03 +7.7397963405e+02 -1.1948663933e+03 2.8807767932e+03 2.2500000000e+03 0.0000e+00 0.0000e+00
      -11  1    4    4    0    0 +4.6604221601e-02 -2.6783538089e-02 -1.3057440267e-01 1.4120639881e-01 5.1100000000e-04 0.0000e+00 -1.0000e+00
  1000022  1    4    4    0    0 +1.0997581612e+03 -7.7391668680e+02 -6.1688664926e+02 2.6928542830e+03 2.2500000000e+03 0.0000e+00 0.0000e+00
<mgrwt>
<rscale>  0 0.52711132E+04</rscale>
<asrwt>0</asrwt>
<pdfrwt beam="1">  1        2 0.28938143E+00 0.52711132E+04</pdfrwt>
<pdfrwt beam="2">  1       -2 0.56812949E+00 0.52711132E+04</pdfrwt>
<totfact> 0.39067311E-03</totfact>
</mgrwt>
</event>
<event>
 8      1 +1.2359593e-08 5.23116800e+03 7.81860800e-03 7.79380400e-02
        2 -1    0    0  501    0 +0.0000000000e+00 +0.0000000000e+00 +3.8141980759e+03 3.8141980759e+03 2.5500000000e-03 0.0000e+00 1.0000e+00
       -2 -1    0    0    0  501 -0.0000000000e+00 -0.0000000000e+00 -1.7936349729e+03 1.7936349729e+03 2.5500000000e-03 0.0000e+00 -1.0000e+00
  1000011  2    1    2    0    0 +4.2267347561e+02 -1.2424750905e+03 +1.2638139043e+03 2.8952687796e+03 2.2501018875e+03 1.1173e+03 0.0000e+00
 -1000011  2    1    2    0    0 -4.2267347561e+02 +1.2424750905e+03 +7.5674919876e+02 2.7125642691e+03 2.2500974083e+03 3.8289e+02 0.0000e+00
       11  1    3    3    0    0 +5.6892815951e-02 -1.0330319912e-02 +1.4318816368e-01 1.5442350476e-01 5.1100000000e-04 0.0000e+00 1.0000e+00
  1000022  1    3    3    0    0 +4.2261658279e+02 -1.2424647602e+03 +1.2636707161e+03 2.8951143561e+03 2.2500000000e+03 0.0000e+00 0.0000e+00
      -11  1    4    4    0    0 +3.0327114018e-03 +1.5717232370e-01 +6.8084405181e-02 1.7131282444e-01 5.1100000000e-04 0.0000e+00 -1.0000e+00
  1000022  1    4    4    0    0 -4.2267650832e+02 +1.2423179182e+03 +7.5668111436e+02 2.7123929563e+03 2.2500000000e+03 0.0000e+00 0.0000e+00
<mgrwt>
<rscale>  0 0.52311678E+04</rscale>
<asrwt>0</asrwt>
<pdfrwt beam="1">  1        2 0.58679969E+00 0.52311678E+04</pdfrwt>
<pdfrwt beam="2">  1       -2 0.27594385E+00 0.52311678E+04</pdfrwt>
<totfact> 0.15210525E-02</totfact>
</mgrwt>
</event>
<event>
 8      1 +1.2359593e-08 4.74482400e+03 7.81860800e-03 7.86912300e-02
       -1 -1    0    0    0  501 -0.0000000000e+00 +0.0000000000e+00 +2.1311432929e+03 2.1311432929e+03 5.0400000000e-03 0.0000e+00 -1.0000e+00
        1 -1    0    0  501    0 +0.0000000000e+00 -0.0000000000e+00 -2.6409945776e+03 2.6409945776e+03 5.0400000000e-03 0.0000e+00 1.0000e+00
  1000011  2    1    2    0    0 -2.9142137093e+02 +4.6040820977e+02 +2.6621589535e+02 2.3303893307e+03 2.2500980856e+03 1.1177e+03 0.0000e+00
 -1000011  2    1    2    0    0 +2.9142137093e+02 -4.6040820977e+02 -7.7606718013e+02 2.4417485398e+03 2.2501007819e+03 1.0600e+03 0.0000e+00
       11  1    3    3    0    0 -4.2903564021e-02 -7.0717178063e-02 -1.6069225812e-02 8.4262184688e-02 5.1100000000e-04 0.0000e+00 1.0000e+00
  1000022  1    3    3    0    0 -2.9137846736e+02 +4.6047892695e+02 +2.6623196458e+02 2.3303050685e+03 2.2500000000e+03 0.0000e+00 0.0000e+00
      -11  1    4    4    0    0 -7.9228572556e-02 -4.8825005231e-03 +1.2505899543e-02 8.0359589108e-02 5.1100000000e-04 0.0000e+00 -1.0000e+00
  1000022  1    4    4    0    0 +2.9150059950e+02 -4.6040332727e+02 -7.7607968603e+02 2.4416681802e+03 2.2500000000e+03 0.0000e+00 0.0000e+00
<mgrwt>
<rscale>  0 0.47448237E+04</rscale>
<asrwt>0</asrwt>
<pdfrwt beam="1">  1        1 0.40630686E+00 0.47448237E+04</pdfrwt>
<pdfrwt beam="2">  1       -1 0.32786820E+00 0.47448237E+04</pdfrwt>
<totfact> 0.17297412E-02</totfact>
</mgrwt>
</event>
<event>
 8      1 +1.2359593e-08 4.56461200e+03 7.81860800e-03 7.89942200e-02
        2 -1    0    0  501    0 +0.0000000000e+00 +0.0000000000e+00 +1.8801349947e+03 1.8801349948e+03 2.5500000000e-03 0.0000e+00 1.0000e+00
       -2 -1    0    0    0  501 -0.0000000000e+00 -0.0000000000e+00 -2.7705038210e+03 2.7705038210e+03 2.5500000000e-03 0.0000e+00 -1.0000e+00
  1000011  2    1    2    0    0 +8.9399870542e+01 +3.0041640674e+02 -6.6783986190e+02 2.3679508235e+03 2.2500974794e+03 1.1824e+02 0.0000e+00
 -1000011  2    1    2    0    0 -8.9399870542e+01 -3.0041640674e+02 -2.2252896431e+02 2.2826879923e+03 2.2500895484e+03 2.6571e+02 0.0000e+00
       11  1    3    3    0    0 +5.1825311094e-02 -2.9512547434e-02 +4.8814254709e-02 7.7071042395e-02 5.1100000000e-04 0.0000e+00 1.0000e+00
  1000022  1    3    3    0    0 +8.9348045231e+01 +3.0044591929e+02 -6.6788867616e+02 2.3678737524e+03 2.2500000000e+03 0.0000e+00 0.0000e+00
      -11  1    4    4    0    0 -2.5912424256e-02 -8.6903277449e-02 +3.5223037017e-02 9.7285951328e-02 5.1100000000e-04 0.0000e+00 -1.0000e+00
  1000022  1    4    4    0    0 -8.9373958118e+01 -3.0032950346e+02 -2.2256418734e+02 2.2825907063e+03 2.2500000000e+03 0.0000e+00 0.0000e+00
<mgrwt>
<rscale>  0 0.45646122E+04</rscale>
<asrwt>0</asrwt>
<pdfrwt beam="1">  1        2 0.28925154E+00 0.45646122E+04</pdfrwt>
<pdfrwt beam="2">  1       -2 0.42623136E+00 0.45646122E+04</pdfrwt>
<totfact> 0.29297383E-02</totfact>
</mgrwt>
</event>
<event>
 8      1 +1.2359593e-08 4.58727300e+03 7.81860800e-03 7.89553400e-02
       -2 -1    0    0    0  501 -0.0000000000e+00 +0.0000000000e+00 +2.1999482441e+03 2.1999482441e+03 2.5500000000e-03 0.0000e+00 -1.0000e+00
        2 -1    0    0  501    0 +0.0000000000e+00 -0.0000000000e+00 -2.3913146099e+03 2.3913146099e+03 2.5500000000e-03 0.0000e+00 1.0000e+00
  1000011  2    1    2    0    0 -3.7418230733e+02 +1.8240366032e+02 -2.5246724093e+02 2.3021657311e+03 2.2500986315e+03 1.5456e+03 0.0000e+00
 -1000011  2    1    2    0    0 +3.7418230733e+02 -1.8240366032e+02 +6.1100875178e+01 2.2890971228e+03 2.2500997370e+03 2.0865e+03 0.0000e+00
       11  1    3    3    0    0 -8.1290886806e-02 -6.4051147184e-02 -3.0421670422e-02 1.0787259482e-01 5.1100000000e-04 0.0000e+00 1.0000e+00
  1000022  1    3    3    0    0 -3.7410101645e+02 +1.8246771146e+02 -2.5243681926e+02 2.3020578585e+03 2.2500000000e+03 0.0000e+00 0.0000e+00
      -11  1    4    4    0    0 -6.7643899843e-02 +2.8293742298e-02 +4.4784231344e-02 8.5919272626e-02 5.1100000000e-04 0.0000e+00 -1.0000e+00
  1000022  1    4    4    0    0 +3.7424995123e+02 -1.8243195406e+02 +6.1056090947e+01 2.2890112036e+03 2.2500000000e+03 0.0000e+00 0.0000e+00
<mgrwt>
<rscale>  0 0.45872730E+04</rscale>
<asrwt>0</asrwt>
<pdfrwt beam="1">  1        2 0.36789456E+00 0.45872730E+04</pdfrwt>
<pdfrwt beam="2">  1       -2 0.33845357E+00 0.45872730E+04</pdfrwt>
<totfact> 0.55630036E-02</totfact>
</mgrwt>
</event>
<event>
 8      1 +1.2359593e-08 5.95251600e+03 7.81860800e-03 7.69631700e-02
       -2 -1    0    0    0  501 -0.0000000000e+00 +0.0000000000e+00 +2.6985606142e+03 2.6985606142e+03 2.5500000000e-03 0.0000e+00 -1.0000e+00
        2 -1    0    0  501    0 +0.0000000000e+00 -0.0000000000e+00 -3.2825316326e+03 3.2825316326e+03 2.5500000000e-03 0.0000e+00 1.0000e+00
  1000011  2    1    2    0    0 +9.6592843120e+02 -1.1485832169e+03 -1.5400899889e+03 3.1124056507e+03 2.2500956914e+03 8.6143e+01 0.0000e+00
 -1000011  2    1    2    0    0 -9.6592843120e+02 +1.1485832169e+03 +9.5611897054e+02 2.8686865961e+03 2.2500973669e+03 3.5827e+03 0.0000e+00
       11  1    3    3    0    0 +1.0494685355e-01 -1.3313651093e-01 -1.4202457875e-01 2.2115699097e-01 5.1100000000e-04 0.0000e+00 1.0000e+00
  1000022  1    3    3    0    0 +9.6582348434e+02 -1.1484500804e+03 -1.5399479643e+03 3.1121844937e+03 2.2500000000e+03 0.0000e+00 0.0000e+00
      -11  1    4    4    0    0 -1.2981326296e-01 +1.0895688935e-01 +1.0141632365e-01 1.9750599635e-01 5.1100000000e-04 0.0000e+00 -1.0000e+00
  1000022  1    4    4    0    0 -9.6579861793e+02 +1.1484742600e+03 +9.5601755421e+02 2.8684890901e+03 2.2500000000e+03 0.0000e+00 0.0000e+00
<mgrwt>
<rscale>  0 0.59525156E+04</rscale>
<asrwt>0</asrwt>
<pdfrwt beam="1">  1        2 0.50500486E+00 0.59525156E+04</pdfrwt>
<pdfrwt beam="2">  1       -2 0.41516317E+00 0.59525156E+04</pdfrwt>
<totfact> 0.45648088E-03</totfact>
</mgrwt>
</event>
<event>
 8      1 +1.2359593e-08 4.94176300e+03 7.81860800e-03 7.83755400e-02
        2 -1    0    0  501    0 +0.0000000000e+00 +0.0000000000e+00 +1.8345729181e+03 1.8345729181e+03 2.5500000000e-03 0.0000e+00 1.0000e+00
       -2 -1    0    0    0  501 -0.0000000000e+00 -0.0000000000e+00 -3.3278896988e+03 3.3278896988e+03 2.5500000000e-03 0.0000e+00 -1.0000e+00
  1000011  2    1    2    0    0 -4.0108944050e+02 +8.9950360987e+02 -1.0276038739e+03 2.6624995704e+03 2.2501010549e+03 4.2555e+01 0.0000e+00
 -1000011  2    1    2    0    0 +4.0108944050e+02 -8.9950360987e+02 -4.6571290688e+02 2.4999630465e+03 2.2500993842e+03 4.3580e+02 0.0000e+00
       11  1    3    3    0    0 -7.9687936875e-02 +2.4442336229e-02 +3.7233960015e-02 9.1291970621e-02 5.1100000000e-04 0.0000e+00 1.0000e+00
  1000022  1    3    3    0    0 -4.0100975256e+02 +8.9947916753e+02 -1.0276411078e+03 2.6624082784e+03 2.2500000000e+03 0.0000e+00 0.0000e+00
      -11  1    4    4    0    0 +6.7589692428e-02 -4.0047940397e-02 -1.1002959676e-01 1.3519976649e-01 5.1100000000e-04 0.0000e+00 -1.0000e+00
  1000022  1    4    4    0    0 +4.0102185081e+02 -8.9946356193e+02 -4.6560287728e+02 2.4998278468e+03 2.2500000000e+03 0.0000e+00 0.0000e+00
<mgrwt>
<rscale>  0 0.49417634E+04</rscale>
<asrwt>0</asrwt>
<pdfrwt beam="1">  1        2 0.28224199E+00 0.49417634E+04</pdfrwt>
<pdfrwt beam="2">  1       -2 0.51198303E+00 0.49417634E+04</pdfrwt>
<totfact> 0.84780926E-03</totfact>
</mgrwt>
</event>
<event>
 8      1 +1.2359593e-08 5.88313200e+03 7.81860800e-03 7.70506300e-02
        2 -1    0    0  501    0 +0.0000000000e+00 +0.0000000000e+00 +3.6754210035e+03 3.6754210035e+03 2.5500000000e-03 0.0000e+00 1.0000e+00
       -2 -1    0    0    0  501 -0.0000000000e+00 -0.0000000000e+00 -2.3542369412e+03 2.3542369412e+03 2.5500000000e-03 0.0000e+00 -1.0000e+00
  1000011  2    1    2    0    0 +5.3695752535e+02 -4.0710523343e+02 -1.1543314531e+03 2.6171531146e+03 2.2501002793e+03 3.4986e+02 0.0000e+00
 -1000011  2    1    2    0    0 -5.3695752535e+02 +4.0710523343e+02 +2.4755155154e+03 3.4125048301e+03 2.2501009074e+03 4.4269e+02 0.0000e+00
       11  1    3    3    0    0 +1.2218575162e-01 -3.4002597792e-02 -9.5052814389e-02 1.5849552878e-01 5.1100000000e-04 0.0000e+00 1.0000e+00
  1000022  1    3    3    0    0 +5.3683533960e+02 -4.0707123083e+02 -1.1542364002e+03 2.6169946191e+03 2.2500000000e+03 0.0000e+00 0.0000e+00
      -11  1    4    4    0    0 +4.7148786344e-02 +8.8820922992e-02 +8.9236578490e-02 1.3444549766e-01 5.1100000000e-04 0.0000e+00 -1.0000e+00
  1000022  1    4    4    0    0 -5.3700467414e+02 +4.0701641250e+02 +2.4754262788e+03 3.4123703846e+03 2.2500000000e+03 0.0000e+00 0.0000e+00
<mgrwt>
<rscale>  0 0.58831325E+04</rscale>
<asrwt>0</asrwt>
<pdfrwt beam="1">  1        2 0.56544938E+00 0.58831325E+04</pdfrwt>
<pdfrwt beam="2">  1       -2 0.36219030E+00 0.58831325E+04</pdfrwt>
<totfact> 0.53677896E-03</totfact>
</mgrwt>
</event>
<event>
 8      1 +1.2359593e-08 4.77773200e+03 7.81860800e-03 7.86374000e-02
       -2 -1    0    0    0  501 -0.0000000000e+00 +0.0000000000e+00 +1.8696491325e+03 1.8696491325e+03 2.5500000000e-03 0.0000e+00 -1.0000e+00
        2 -1    0    0  501    0 +0.0000000000e+00 -0.0000000000e+00 -3.0522738371e+03 3.0522738371e+03 2.5500000000e-03 0.0000e+00 1.0000e+00
  1000011  2    1    2    0    0 -2.6502843463e+01 -2.2045760378e+02 -1.3855729395e+03 2.6518039028e+03 2.2500994672e+03 3.3655e+02 0.0000e+00
 -1000011  2    1    2    0    0 +2.6502843463e+01 +2.2045760378e+02 +2.0294823490e+02 2.2701190668e+03 2.2500996946e+03 2.9932e+02 0.0000e+00
       11  1    3    3    0    0 -7.8433505000e-02 -6.5794590248e-02 -9.8792317655e-02 1.4227060766e-01 5.1100000000e-04 0.0000e+00 1.0000e+00
  1000022  1    3    3    0    0 -2.6424409958e+01 -2.2039180918e+02 -1.3854741472e+03 2.6516616322e+03 2.2500000000e+03 0.0000e+00 0.0000e+00
      -11  1    4    4    0    0 +4.6098953079e-02 +8.6288958310e-02 +5.6028319922e-02 1.1274010526e-01 5.1100000000e-04 0.0000e+00 -1.0000e+00
  1000022  1    4    4    0    0 +2.6456744510e+01 +2.2037131482e+02 +2.0289220658e+02 2.2700063267e+03 2.2500000000e+03 0.0000e+00 0.0000e+00
<mgrwt>
<rscale>  0 0.47777322E+04</rscale>
<asrwt>0</asrwt>
<pdfrwt beam="1">  1        2 0.46958059E+00 0.47777322E+04</pdfrwt>
<pdfrwt beam="2">  1       -2 0.28763833E+00 0.47777322E+04</pdfrwt>
<totfact> 0.45206609E-02</totfact>
</mgrwt>
</event>
<event>
 8      1 +1.2359593e-08 4.63295300e+03 7.81860800e-03 7.88776500e-02
        2 -1    0    0  501    0 +0.0000000000e+00 +0.0000000000e+00 +4.8112133361e+03 4.8112133361e+03 2.5500000000e-03 0.0000e+00 1.0000e+00
       -2 -1    0    0    0  501 -0.0000000000e+00 -0.0000000000e+00 -1.1153244672e+03 1.1153244672e+03 2.5500000000e-03 0.0000e+00 -1.0000e+00
  1000011  2    1    2    0    0 -4.2348822006e+02 +1.8436680286e+02 +2.2312426082e+03 3.2022998800e+03 2.2500994543e+03 1.0226e+03 0.0000e+00
 -1000011  2    1    2    0    0 +4.2348822006e+02 -1.8436680286e+02 +1.4646462607e+03 2.7242379234e+03 2.2501000430e+03 8.8309e+02 0.0000e+00
       11  1    3    3    0    0 -1.5313390564e-02 +4.4801063994e-02 +2.2970587825e-01 2.3453504282e-01 5.1100000000e-04 0.0000e+00 1.0000e+00
  1000022  1    3    3    0    0 -4.2347290667e+02 +1.8432200180e+02 +2.2310129023e+03 3.2020653449e+03 2.2500000000e+03 0.0000e+00 0.0000e+00
      -11  1    4    4    0    0 +4.8519250585e-02 -8.0106398857e-02 +1.4806195458e-01 1.7519633556e-01 5.1100000000e-04 0.0000e+00 -1.0000e+00
  1000022  1    4    4    0    0 +4.2343970081e+02 -1.8428669647e+02 +1.4644981987e+03 2.7240627270e+03 2.2500000000e+03 0.0000e+00 0.0000e+00
<mgrwt>
<rscale>  0 0.46329532E+04</rscale>
<asrwt>0</asrwt>
<pdfrwt beam="1">  1        2 0.74018668E+00 0.46329532E+04</pdfrwt>
<pdfrwt beam="2">  1       -2 0.17158838E+00 0.46329532E+04</pdfrwt>
<totfact> 0.88838362E-03</totfact>
</mgrwt>
</event>
<event>
 8      1 +1.2359593e-08 6.09439000e+03 7.81860800e-03 7.67880800e-02
       -2 -1    0    0    0  501 -0.0000000000e+00 +0.0000000000e+00 +5.0654621712e+03 5.0654621712e+03 2.5500000000e-03 0.0000e+00 -1.0000e+00
        2 -1    0    0  501    0 +0.0000000000e+00 -0.0000000000e+00 -1.8330799760e+03 1.8330799760e+03 2.5500000000e-03 0.0000e+00 1.0000e+00
  1000011  2    1    2    0    0 +8.1100259232e+02 -1.8862576639e+03 +1.5231467263e+03 3.4056737394e+03 2.2500987733e+03 2.3631e+02 0.0000e+00
 -1000011  2    1    2    0    0 -8.1100259232e+02 +1.8862576639e+03 +1.7092354689e+03 3.4928684079e+03 2.2501001415e+03 2.0718e+02 0.0000e+00
       11  1    3    3    0    0 -6.7184605429e-03 -1.0792343625e-01 -2.6858707433e-02 1.1141928277e-01 5.1100000000e-04 0.0000e+00 1.0000e+00
  1000022  1    3    3    0    0 +8.1100931078e+02 -1.8861497405e+03 +1.5231735850e+03 3.4055623201e+03 2.2500000000e+03 0.0000e+00 0.0000e+00
      -11  1    4    4    0    0 -8.3435427469e-02 +1.9789853828e-01 +7.5204664826e-02 2.2755505724e-01 5.1100000000e-04 0.0000e+00 -1.0000e+00
  1000022  1    4    4    0    0 -8.1091915689e+02 +1.8860597654e+03 +1.7091602643e+03 3.4926408528e+03 2.2500000000e+03 0.0000e+00 0.0000e+00
<mgrwt>
<rscale>  0 0.60943900E+04</rscale>
<asrwt>0</asrwt>
<pdfrwt beam="1">  1        2 0.28201231E+00 0.60943900E+04</pdfrwt>
<pdfrwt beam="2">  1       -2 0.77930187E+00 0.60943900E+04</pdfrwt>
<totfact> 0.57346465E-04</totfact>
</mgrwt>
</event>
<event>
 8      1 +1.2359593e-08 5.23611000e+03 7.81860800e-03 7.79308300e-02
        2 -1    0    0  501    0 +0.0000000000e+00 +0.0000000000e+00 +2.9261304989e+03 2.9261304989e+03 2.5500000000e-03 0.0000e+00 1.0000e+00
       -2 -1    0    0    0  501 -0.0000000000e+00 -0.0000000000e+00 -2.3424145620e+03 2.3424145620e+03 2.5500000000e-03 0.0000e+00 -1.0000e+00
  1000011  2    1    2    0    0 -6.6057415610e+00 -1.1236687837e+03 -4.3969239093e+02 2.5532250682e+03 2.2501008153e+03 2.4128e+03 0.0000e+00
 -1000011  2    1    2    0    0 +6.6057415610e+00 +1.1236687837e+03 +1.0234083279e+03 2.7153199927e+03 2.2500939726e+03 1.9518e+03 0.0000e+00
       11  1    3    3    0    0 +8.2806848688e-02 -1.1218437080e-01 -3.8265308240e-02 1.4459184601e-01 5.1100000000e-04 0.0000e+00 1.0000e+00
  1000022  1    3    3    0    0 -6.6885484097e+00 -1.1235565993e+03 -4.3965412563e+02 2.5530804764e+03 2.2500000000e+03 0.0000e+00 0.0000e+00
      -11  1    4    4    0    0 +3.4745965371e-02 -4.8599342739e-02 +5.7873011661e-03 6.0024424799e-02 5.1100000000e-04 0.0000e+00 -1.0000e+00
  1000022  1    4    4    0    0 +6.5709955956e+00 +1.1237173831e+03 +1.0234025406e+03 2.7152599682e+03 2.2500000000e+03 0.0000e+00 0.0000e+00
<mgrwt>
<rscale>  0 0.52361095E+04</rscale>
<asrwt>0</asrwt>
<pdfrwt beam="1">  1        2 0.45017392E+00 0.52361095E+04</pdfrwt>
<pdfrwt beam="2">  1       -2 0.36037147E+00 0.52361095E+04</pdfrwt>
<totfact> 0.18497069E-02</totfact>
</mgrwt>
</event>
<event>
 8      1 +1.2359593e-08 4.63932400e+03 7.81860800e-03 7.88668900e-02
        2 -1    0    0  501    0 +0.0000000000e+00 +0.0000000000e+00 +4.0111570043e+03 4.0111570043e+03 2.5500000000e-03 0.0000e+00 1.0000e+00
       -2 -1    0    0    0  501 -0.0000000000e+00 -0.0000000000e+00 -1.3414660252e+03 1.3414660252e+03 2.5500000000e-03 0.0000e+00 -1.0000e+00
  1000011  2    1    2    0    0 +1.2519951211e+02 -8.4986056078e+01 +1.9614727401e+03 2.9888494351e+03 2.2500995730e+03 1.8585e+03 0.0000e+00
 -1000011  2    1    2    0    0 -1.2519951211e+02 +8.4986056078e+01 +7.0821823902e+02 2.3637735944e+03 2.2501011053e+03 9.2130e+02 0.0000e+00
       11  1    3    3    0    0 +1.0189349210e-01 +1.8959612079e-02 +7.5358284702e-02 1.2814399143e-01 5.1100000000e-04 0.0000e+00 1.0000e+00
  1000022  1    3    3    0    0 +1.2509761861e+02 -8.5005015690e+01 +1.9613973818e+03 2.9887212911e+03 2.2500000000e+03 0.0000e+00 0.0000e+00
      -11  1    4    4    0    0 -1.9801112344e-02 +5.5205060146e-02 -5.7411601504e-02 8.2073354737e-02 5.1100000000e-04 0.0000e+00 -1.0000e+00
  1000022  1    4    4    0    0 -1.2517971099e+02 +8.4930851018e+01 +7.0827565062e+02 2.3636915211e+03 2.2500000000e+03 0.0000e+00 0.0000e+00
<mgrwt>
<rscale>  0 0.46393236E+04</rscale>
<asrwt>0</asrwt>
<pdfrwt beam="1">  1        2 0.61710107E+00 0.46393236E+04</pdfrwt>
<pdfrwt beam="2">  1       -2 0.20637939E+00 0.46393236E+04</pdfrwt>
<totfact> 0.30202043E-02</totfact>
</mgrwt>
</event>
<event>
 8      1 +1.2359593e-08 5.11190000e+03 7.81860800e-03 7.81147400e-02
        2 -1    0    0  501    0 +0.0000000000e+00 +0.0000000000e+00 +3.4369181348e+03 3.4369181348e+03 2.5500000000e-03 0.0000e+00 1.0000e+00
       -2 -1    0    0    0  501 -0.0000000000e+00 -0.0000000000e+00 -1.9007960892e+03 1.9007960892e+03 2.5500000000e-03 0.0000e+00 -1.0000e+00
  1000011  2    1    2    0    0 +7.4986600017e+02 +6.8941445313e+01 +1.7602348440e+03 2.9543906134e+03 2.2500989421e+03 1.3536e+03 0.0000e+00
 -1000011  2    1    2    0    0 -7.4986600017e+02 -6.8941445313e+01 -2.2411279852e+02 2.3833236106e+03 2.2501006523e+03 1.8681e+03 0.0000e+00
       11  1    3    3    0    0 +9.5087653127e-03 +5.3050281306e-02 +1.7544082606e-01 1.8353335728e-01 5.1100000000e-04 0.0000e+00 1.0000e+00
  1000022  1    3    3    0    0 +7.4985649140e+02 +6.8888395032e+01 +1.7600594032e+03 2.9542070800e+03 2.2500000000e+03 0.0000e+00 0.0000e+00
      -11  1    4    4    0    0 -4.9557421366e-02 -9.3678377867e-02 +3.0972645961e-02 1.1041350596e-01 5.1100000000e-04 0.0000e+00 -1.0000e+00
  1000022  1    4    4    0    0 -7.4981644275e+02 -6.8847766935e+01 -2.2414377117e+02 2.3832131971e+03 2.2500000000e+03 0.0000e+00 0.0000e+00
<mgrwt>
<rscale>  0 0.51119001E+04</rscale>
<asrwt>0</asrwt>
<pdfrwt beam="1">  1        2 0.52875663E+00 0.51119001E+04</pdfrwt>
<pdfrwt beam="2">  1       -2 0.29243017E+00 0.51119001E+04</pdfrwt>
<totfact> 0.22907244E-02</totfact>
</mgrwt>
</event>
<event>
 8      1 +1.2359593e-08 4.68255300e+03 7.81860800e-03 7.87943400e-02
       -2 -1    0    0    0  501 -0.0000000000e+00 +0.0000000000e+00 +1.6598155497e+03 1.6598155497e+03 2.5500000000e-03 0.0000e+00 -1.0000e+00
        2 -1    0    0  501    0 +0.0000000000e+00 -0.0000000000e+00 -3.3025216054e+03 3.3025216054e+03 2.5500000000e-03 0.0000e+00 1.0000e+00
  1000011  2    1    2    0    0 +2.7181704190e+02 -5.2871430985e+02 -5.5074424865e+02 2.3915876354e+03 2.2500997455e+03 5.1884e+02 0.0000e+00
 -1000011  2    1    2    0    0 -2.7181704190e+02 +5.2871430985e+02 -1.0919618070e+03 2.5707495196e+03 2.2500998153e+03 8.1410e+02 0.0000e+00
       11  1    3    3    0    0 -2.1667629594e-02 +3.6067531925e-02 -9.7014691248e-02 1.0574717179e-01 5.1100000000e-04 0.0000e+00 1.0000e+00
  1000022  1    3    3    0    0 +2.7183870953e+02 -5.2875037739e+02 -5.5064723396e+02 2.3914818883e+03 2.2500000000e+03 0.0000e+00 0.0000e+00
      -11  1    4    4    0    0 -7.9464264111e-02 -1.5744405751e-02 -1.1678923264e-01 1.4213529179e-01 5.1100000000e-04 0.0000e+00 -1.0000e+00
  1000022  1    4    4    0    0 -2.7173757764e+02 +5.2873005426e+02 -1.0918450178e+03 2.5706073843e+03 2.2500000000e+03 0.0000e+00 0.0000e+00
<mgrwt>
<rscale>  0 0.46825535E+04</rscale>
<asrwt>0</asrwt>
<pdfrwt beam="1">  1        2 0.50808025E+00 0.46825535E+04</pdfrwt>
<pdfrwt beam="2">  1       -2 0.25535624E+00 0.46825535E+04</pdfrwt>
<totfact> 0.49287017E-02</totfact>
</mgrwt>
</event>
<event>
 8      1 +1.2359593e-08 4.53023200e+03 7.81860800e-03 7.90536500e-02
       -2 -1    0    0    0  501 -0.0000000000e+00 +0.0000000000e+00 +2.8604686357e+03 2.8604686357e+03 2.5500000000e-03 0.0000e+00 -1.0000e+00
        2 -1    0    0  501    0 +0.0000000000e+00 -0.0000000000e+00 -1.7936744113e+03 1.7936744113e+03 2.5500000000e-03 0.0000e+00 1.0000e+00
  1000011  2    1    2    0    0 -1.1727938195e+02 -2.0781178097e+02 +4.2631517415e+02 2.3025277044e+03 2.2500997783e+03 5.3439e+02 0.0000e+00
 -1000011  2    1    2    0    0 +1.1727938195e+02 +2.0781178097e+02 +6.4047905023e+02 2.3516153425e+03 2.2500980235e+03 6.5868e+02 0.0000e+00
       11  1    3    3    0    0 +1.5939173425e-02 +8.3626785909e-02 -1.4782749272e-02 8.6407677388e-02 5.1100000000e-04 0.0000e+00 1.0000e+00
  1000022  1    3    3    0    0 -1.1729532113e+02 -2.0789540776e+02 +4.2632995689e+02 2.3024412968e+03 2.2500000000e+03 0.0000e+00 0.0000e+00
      -11  1    4    4    0    0 -8.6598237845e-02 -1.2533098653e-03 +6.1130857613e-02 1.0600975375e-01 5.1100000000e-04 0.0000e+00 -1.0000e+00
  1000022  1    4    4    0    0 +1.1736598019e+02 +2.0781303428e+02 +6.4041791938e+02 2.3515093327e+03 2.2500000000e+03 0.0000e+00 0.0000e+00
<mgrwt>
<rscale>  0 0.45302315E+04</rscale>
<asrwt>0</asrwt>
<pdfrwt beam="1">  1        2 0.27594991E+00 0.45302315E+04</pdfrwt>
<pdfrwt beam="2">  1       -2 0.44007209E+00 0.45302315E+04</pdfrwt>
<totfact> 0.26576894E-02</totfact>
</mgrwt>
</event>
<event>
 8      1 +1.2359593e-08 4.53507900e+03 7.81860800e-03 7.90452400e-02
        2 -1    0    0  501    0 +0.0000000000e+00 +0.0000000000e+00 +3.9106200854e+03 3.9106200854e+03 2.5500000000e-03 0.0000e+00 1.0000e+00
       -2 -1    0    0    0  501 -0.0000000000e+00 -0.0000000000e+00 -1.3148135423e+03 1.3148135423e+03 2.5500000000e-03 0.0000e+00 -1.0000e+00
  1000011  2    1    2    0    0 -2.5645647455e+02 +8.6458973265e+01 +1.2121271279e+03 2.5701062758e+03 2.2500997794e+03 4.6418e+02 0.0000e+00
 -1000011  2    1    2    0    0 +2.5645647455e+02 -8.6458973265e+01 +1.3836794152e+03 2.6553273520e+03 2.2500998967e+03 2.0892e+03 0.0000e+00
       11  1    3    3    0    0 -2.0368448302e-02 +9.1266035668e-02 +1.0985715048e-01 1.4426786538e-01 5.1100000000e-04 0.0000e+00 1.0000e+00
  1000022  1    3    3    0    0 -2.5643610611e+02 +8.6367707229e+01 +1.2120172708e+03 2.5699620079e+03 2.2500000000e+03 0.0000e+00 0.0000e+00
      -11  1    4    4    0    0 +8.9184786221e-02 +4.0028450365e-02 +1.2702136863e-02 9.8578942982e-02 5.1100000000e-04 0.0000e+00 -1.0000e+00
  1000022  1    4    4    0    0 +2.5636728977e+02 -8.6499001715e+01 +1.3836667130e+03 2.6552287731e+03 2.2500000000e+03 0.0000e+00 0.0000e+00
<mgrwt>
<rscale>  0 0.45350794E+04</rscale>
<asrwt>0</asrwt>
<pdfrwt beam="1">  1        2 0.60163386E+00 0.45350794E+04</pdfrwt>
<pdfrwt beam="2">  1       -2 0.20227901E+00 0.45350794E+04</pdfrwt>
<totfact> 0.39005584E-02</totfact>
</mgrwt>
</event>
<event>
 8      1 +1.2359593e-08 4.98996900e+03 7.81860800e-03 7.83005600e-02
        2 -1    0    0  501    0 +0.0000000000e+00 +0.0000000000e+00 +3.0067266105e+03 3.0067266105e+03 2.5500000000e-03 0.0000e+00 -1.0000e+00
       -2 -1    0    0    0  501 -0.0000000000e+00 -0.0000000000e+00 -2.0703405232e+03 2.0703405232e+03 2.5500000000e-03 0.0000e+00 1.0000e+00
  1000011  2    1    2    0    0 -6.5697420546e+02 +8.1145889621e+02 +1.9531386350e+02 2.4882088717e+03 2.2501011615e+03 4.2470e+02 0.0000e+00
 -1000011  2    1    2    0    0 +6.5697420546e+02 -8.1145889621e+02 +7.4107222376e+02 2.5888582620e+03 2.2500929788e+03 9.9916e+02 0.0000e+00
       11  1    3    3    0    0 -7.7120427554e-02 +9.3213355976e-02 -6.4638125981e-02 1.3716646172e-01 5.1100000000e-04 0.0000e+00 1.0000e+00
  1000022  1    3    3    0    0 -6.5689708504e+02 +8.1136568285e+02 +1.9537850162e+02 2.4880717053e+03 2.2500000000e+03 0.0000e+00 0.0000e+00
      -11  1    4    4    0    0 +7.1953481456e-02 -2.5710468213e-02 +1.1859103719e-01 1.4107595993e-01 5.1100000000e-04 0.0000e+00 -1.0000e+00
  1000022  1    4    4    0    0 +6.5690225198e+02 -8.1143318574e+02 +7.4095363272e+02 2.5887171861e+03 2.2500000000e+03 0.0000e+00 0.0000e+00
<mgrwt>
<rscale>  0 0.49899691E+04</rscale>
<asrwt>0</asrwt>
<pdfrwt beam="1">  1        2 0.46257333E+00 0.49899691E+04</pdfrwt>
<pdfrwt beam="2">  1       -2 0.31851393E+00 0.49899691E+04</pdfrwt>
<totfact> 0.30709082E-02</totfact>
</mgrwt>
</event>
<event>
 8      1 +1.2359593e-08 4.59270900e+03 7.81860800e-03 7.89460400e-02
       -2 -1    0    0    0  501 -0.0000000000e+00 +0.0000000000e+00 +2.7964857817e+03 2.7964857817e+03 2.5500000000e-03 0.0000e+00 -1.0000e+00
        2 -1    0    0  501    0 +0.0000000000e+00 -0.0000000000e+00 -1.8856682296e+03 1.8856682296e+03 2.5500000000e-03 0.0000e+00 1.0000e+00
  1000011  2    1    2    0    0 +3.8266243874e+02 -3.1449470451e+01 +7.1104358883e+02 2.3908055479e+03 2.2500996804e+03 1.7543e+02 0.0000e+00
 -1000011  2    1    2    0    0 -3.8266243874e+02 +3.1449470451e+01 +1.9977396332e+02 2.2913484634e+03 2.2500996718e+03 2.1076e+01 0.0000e+00
       11  1    3    3    0    0 -7.0560774173e-02 +3.4691430444e-02 -9.5843308786e-03 7.9211352053e-02 5.1100000000e-04 0.0000e+00 1.0000e+00
  1000022  1    3    3    0    0 +3.8273299952e+02 -3.1484161882e+01 +7.1105317316e+02 2.3907263366e+03 2.2500000000e+03 0.0000e+00 0.0000e+00
      -11  1    4    4    0    0 +6.2907026750e-02 +1.4859224593e-02 +6.7499382726e-02 9.3458643820e-02 5.1100000000e-04 0.0000e+00 -1.0000e+00
  1000022  1    4    4    0    0 -3.8272534577e+02 +3.1434611227e+01 +1.9970646394e+02 2.2912550048e+03 2.2500000000e+03 0.0000e+00 0.0000e+00
<mgrwt>
<rscale>  0 0.45927092E+04</rscale>
<asrwt>0</asrwt>
<pdfrwt beam="1">  1        2 0.29010280E+00 0.45927092E+04</pdfrwt>
<pdfrwt beam="2">  1       -2 0.43022858E+00 0.45927092E+04</pdfrwt>
<totfact> 0.27314584E-02</totfact>
</mgrwt>
</event>
<event>
 8      1 +1.2359593e-08 4.93636000e+03 7.81860800e-03 7.83840000e-02
        2 -1    0    0  501    0 +0.0000000000e+00 +0.0000000000e+00 +1.7307768181e+03 1.7307768181e+03 2.5500000000e-03 0.0000e+00 1.0000e+00
       -2 -1    0    0    0  501 -0.0000000000e+00 -0.0000000000e+00 -3.5197565559e+03 3.5197565559e+03 2.5500000000e-03 0.0000e+00 -1.0000e+00
  1000011  2    1    2    0    0 -3.4767087718e+02 -6.7388038840e+02 -1.7783810144e+02 2.3810880013e+03 2.2501030783e+03 2.2665e+03 0.0000e+00
 -1000011  2    1    2    0    0 +3.4767087718e+02 +6.7388038840e+02 -1.6111416364e+03 2.8694453728e+03 2.2500998997e+03 5.2924e+02 0.0000e+00
       11  1    3    3    0    0 -3.8993020663e-02 -1.0966765041e-01 -7.7686258444e-02 1.3993878909e-01 5.1100000000e-04 0.0000e+00 1.0000e+00
  1000022  1    3    3    0    0 -3.4763188416e+02 -6.7377072075e+02 -1.7776041518e+02 2.3809480625e+03 2.2500000000e+03 0.0000e+00 0.0000e+00
      -11  1    4    4    0    0 -2.8945401497e-02 +1.1265500850e-01 -1.2911202181e-01 1.7377906156e-01 5.1100000000e-04 0.0000e+00 -1.0000e+00
  1000022  1    4    4    0    0 +3.4769982258e+02 +6.7376773339e+02 -1.6110125243e+03 2.8692715938e+03 2.2500000000e+03 0.0000e+00 0.0000e+00
<mgrwt>
<rscale>  0 0.49363602E+04</rscale>
<asrwt>0</asrwt>
<pdfrwt beam="1">  1        2 0.26627336E+00 0.49363602E+04</pdfrwt>
<pdfrwt beam="2">  1       -2 0.54150101E+00 0.49363602E+04</pdfrwt>
<totfact> 0.65874978E-03</totfact>
</mgrwt>
</event>
<event>
 8      1 +1.2359593e-08 4.65286600e+03 7.81860800e-03 7.88440800e-02
       -2 -1    0    0    0  501 -0.0000000000e+00 +0.0000000000e+00 +1.8634622772e+03 1.8634622772e+03 2.5500000000e-03 0.0000e+00 -1.0000e+00
        2 -1    0    0  501    0 +0.0000000000e+00 -0.0000000000e+00 -2.9044273254e+03 2.9044273254e+03 2.5500000000e-03 0.0000e+00 1.0000e+00
  1000011  2    1    2    0    0 +1.5219883141e+02 +5.3464997103e+02 -7.2625098887e+02 2.4288681707e+03 2.2500988903e+03 9.6159e+02 0.0000e+00
 -1000011  2    1    2    0    0 -1.5219883141e+02 -5.3464997103e+02 -3.1471405931e+02 2.3390214318e+03 2.2501024963e+03 6.1057e+02 0.0000e+00
       11  1    3    3    0    0 +6.4971059772e-02 +1.0420448302e-01 -1.8742643544e-02 1.2422302664e-01 5.1100000000e-04 0.0000e+00 1.0000e+00
  1000022  1    3    3    0    0 +1.5213386035e+02 +5.3454576655e+02 -7.2623224623e+02 2.4287439477e+03 2.2500000000e+03 0.0000e+00 0.0000e+00
      -11  1    4    4    0    0 -4.0829886998e-02 -1.0619735259e-01 +3.9012560920e-02 1.2027966554e-01 5.1100000000e-04 0.0000e+00 -1.0000e+00
  1000022  1    4    4    0    0 -1.5215800152e+02 -5.3454377368e+02 -3.1475307187e+02 2.3389011522e+03 2.2500000000e+03 0.0000e+00 0.0000e+00
<mgrwt>
<rscale>  0 0.46528661E+04</rscale>
<asrwt>0</asrwt>
<pdfrwt beam="1">  1        2 0.44683497E+00 0.46528661E+04</pdfrwt>
<pdfrwt beam="2">  1       -2 0.28668650E+00 0.46528661E+04</pdfrwt>
<totfact> 0.57260867E-02</totfact>
</mgrwt>
</event>
<event>
 8      1 +1.2359593e-08 5.09974300e+03 7.81860800e-03 7.81330200e-02
        2 -1    0    0  501    0 +0.0000000000e+00 +0.0000000000e+00 +3.8763512762e+03 3.8763512762e+03 2.5500000000e-03 0.0000e+00 1.0000e+00
       -2 -1    0    0    0  501 -0.0000000000e+00 -0.0000000000e+00 -1.6773103920e+03 1.6773103920e+03 2.5500000000e-03 0.0000e+00 -1.0000e+00
  1000011  2    1    2    0    0 -9.3825301374e+02 -2.8774821850e+02 +1.8507002777e+03 3.0742655855e+03 2.2500888021e+03 5.7962e+02 0.0000e+00
 -1000011  2    1    2    0    0 +9.3825301374e+02 +2.8774821850e+02 +3.4834060652e+02 2.4793960827e+03 2.2500991093e+03 2.2566e+02 0.0000e+00
       11  1    3    3    0    0 -1.2297700031e-01 -8.9074280535e-04 +1.4354798890e-01 1.8902492433e-01 5.1100000000e-04 0.0000e+00 1.0000e+00
  1000022  1    3    3    0    0 -9.3813003674e+02 -2.8774732776e+02 +1.8505567297e+03 3.0740765606e+03 2.2500000000e+03 0.0000e+00 0.0000e+00
      -11  1    4    4    0    0 +1.3710897645e-02 +1.0054253389e-01 +5.2259598828e-02 1.1414077423e-01 5.1100000000e-04 0.0000e+00 -1.0000e+00
  1000022  1    4    4    0    0 +9.3823930284e+02 +2.8764767597e+02 +3.4828834693e+02 2.4792819419e+03 2.2500000000e+03 0.0000e+00 0.0000e+00
<mgrwt>
<rscale>  0 0.50997428E+04</rscale>
<asrwt>0</asrwt>
<pdfrwt beam="1">  1        2 0.59636174E+00 0.50997428E+04</pdfrwt>
<pdfrwt beam="2">  1       -2 0.25804775E+00 0.50997428E+04</pdfrwt>
<totfact> 0.17699217E-02</totfact>
</mgrwt>
</event>
<event>
 8      1 +1.2359593e-08 5.46987900e+03 7.81860800e-03 7.75984700e-02
       -2 -1    0    0    0  501 -0.0000000000e+00 +0.0000000000e+00 +1.8334817727e+03 1.8334817727e+03 2.5500000000e-03 0.0000e+00 -1.0000e+00
        2 -1    0    0  501    0 +0.0000000000e+00 -0.0000000000e+00 -4.0796118827e+03 4.0796118827e+03 2.5500000000e-03 0.0000e+00 1.0000e+00
  1000011  2    1    2    0    0 +5.5252646109e+02 +9.2743947062e+02 -2.3324200704e+03 3.4159283286e+03 2.2501007755e+03 4.8749e+02 0.0000e+00
 -1000011  2    1    2    0    0 -5.5252646109e+02 -9.2743947062e+02 +8.6289960325e+01 2.4971653268e+03 2.2501020533e+03 1.2182e+03 0.0000e+00
       11  1    3    3    0    0 +5.1852133634e-02 -1.3804319542e-02 -2.0179007367e-01 2.0880301186e-01 5.1100000000e-04 0.0000e+00 1.0000e+00
  1000022  1    3    3    0    0 +5.5247460896e+02 +9.2745327494e+02 -2.3322182803e+03 3.4157195256e+03 2.2500000000e+03 0.0000e+00 0.0000e+00
      -11  1    4    4    0    0 +5.4074260570e-02 -1.0496747128e-01 +1.9269896159e-02 1.1964023322e-01 5.1100000000e-04 0.0000e+00 -1.0000e+00
  1000022  1    4    4    0    0 -5.5258053535e+02 -9.2733450314e+02 +8.6270690428e+01 2.4970456866e+03 2.2500000000e+03 0.0000e+00 0.0000e+00
<mgrwt>
<rscale>  0 0.54698790E+04</rscale>
<asrwt>0</asrwt>
<pdfrwt beam="1">  1        2 0.62763260E+00 0.54698790E+04</pdfrwt>
<pdfrwt beam="2">  1       -2 0.28207412E+00 0.54698790E+04</pdfrwt>
<totfact> 0.83961375E-03</totfact>
</mgrwt>
</event>
<event>
 8      1 +1.2359593e-08 4.67027800e+03 7.81860800e-03 7.88148600e-02
       -2 -1    0    0    0  501 -0.0000000000e+00 +0.0000000000e+00 +2.9445787845e+03 2.9445787845e+03 2.5500000000e-03 0.0000e+00 -1.0000e+00
        2 -1    0    0  501    0 +0.0000000000e+00 -0.0000000000e+00 -1.8518354154e+03 1.8518354155e+03 2.5500000000e-03 0.0000e+00 1.0000e+00
  1000011  2    1    2    0    0 -3.9781986632e+02 -4.5720992955e+02 +7.0082144235e+02 2.4333938677e+03 2.2501007656e+03 7.9618e+02 0.0000e+00
 -1000011  2    1    2    0    0 +3.9781986632e+02 +4.5720992955e+02 +3.9192192669e+02 2.3630203323e+03 2.2501023817e+03 1.3537e+03 0.0000e+00
       11  1    3    3    0    0 +2.7774845525e-03 +5.8943492943e-02 +8.9896959631e-02 1.0753498968e-01 5.1100000000e-04 0.0000e+00 1.0000e+00
  1000022  1    3    3    0    0 -3.9782264381e+02 -4.5726887305e+02 +7.0073154539e+02 2.4332863327e+03 2.2500000000e+03 0.0000e+00 0.0000e+00
      -11  1    4    4    0    0 +2.7396338193e-03 +1.1868291149e-01 +5.1707989177e-02 1.2948789904e-01 5.1100000000e-04 0.0000e+00 -1.0000e+00
  1000022  1    4    4    0    0 +3.9781712669e+02 +4.5709124664e+02 +3.9187021870e+02 2.3628908444e+03 2.2500000000e+03 0.0000e+00 0.0000e+00
<mgrwt>
<rscale>  0 0.46702785E+04</rscale>
<asrwt>0</asrwt>
<pdfrwt beam="1">  1        2 0.28489776E+00 0.46702785E+04</pdfrwt>
<pdfrwt beam="2">  1       -2 0.45301212E+00 0.46702785E+04</pdfrwt>
<totfact> 0.20048833E-02</totfact>
</mgrwt>
</event>
<event>
 8      1 +1.2359593e-08 5.30155900e+03 7.81860800e-03 7.78360100e-02
       -2 -1    0    0    0  501 -0.0000000000e+00 +0.0000000000e+00 +1.9557986961e+03 1.9557986961e+03 2.5500000000e-03 0.0000e+00 -1.0000e+00
        2 -1    0    0  501    0 +0.0000000000e+00 -0.0000000000e+00 -3.5927178385e+03 3.5927178385e+03 2.5500000000e-03 0.0000e+00 1.0000e+00
  1000011  2    1    2    0    0 -7.3600736825e+01 -1.2139434267e+03 -1.5470207428e+03 2.9891985034e+03 2.2501019538e+03 3.8892e+02 0.0000e+00
 -1000011  2    1    2    0    0 +7.3600736825e+01 +1.2139434267e+03 -8.9898399574e+01 2.5593180311e+03 2.2501002978e+03 1.3655e+03 0.0000e+00
       11  1    3    3    0    0 -9.9846200615e-02 -2.5934201142e-02 -4.1385035927e-02 1.1115227537e-01 5.1100000000e-04 0.0000e+00 1.0000e+00
  1000022  1    3    3    0    0 -7.3500890625e+01 -1.2139174925e+03 -1.5469793578e+03 2.9890873512e+03 2.2500000000e+03 0.0000e+00 0.0000e+00
      -11  1    4    4    0    0 -6.1532281661e-02 +1.3883793747e-01 +6.8999344288e-03 1.5201994762e-01 5.1100000000e-04 0.0000e+00 -1.0000e+00
  1000022  1    4    4    0    0 +7.3662269107e+01 +1.2138045888e+03 -8.9905299509e+01 2.5591660111e+03 2.2500000000e+03 0.0000e+00 0.0000e+00
<mgrwt>
<rscale>  0 0.53015593E+04</rscale>
<asrwt>0</asrwt>
<pdfrwt beam="1">  1        2 0.55272582E+00 0.53015593E+04</pdfrwt>
<pdfrwt beam="2">  1       -2 0.30089211E+00 0.53015593E+04</pdfrwt>
<totfact> 0.15551927E-02</totfact>
</mgrwt>
</event>
<event>
 8      1 +1.2359593e-08 4.98079100e+03 7.81860800e-03 7.83147700e-02
        2 -1    0    0  501    0 +0.0000000000e+00 +0.0000000000e+00 +4.1559976391e+03 4.1559976391e+03 2.5500000000e-03 0.0000e+00 -1.0000e+00
       -2 -1    0    0    0  501 -0.0000000000e+00 -0.0000000000e+00 -1.4923177618e+03 1.4923177618e+03 2.5500000000e-03 0.0000e+00 1.0000e+00
  1000011  2    1    2    0    0 +6.0961519507e+02 +6.3960250244e+02 +2.0107390589e+03 3.1443198744e+03 2.2501008560e+03 1.1638e+03 0.0000e+00
 -1000011  2    1    2    0    0 -6.0961519507e+02 -6.3960250244e+02 +6.5294081836e+02 2.5039955265e+03 2.2500977394e+03 1.4534e+03 0.0000e+00
       11  1    3    3    0    0 +1.2726691520e-01 +6.6070055464e-02 +1.2448011352e-01 1.8988859668e-01 5.1100000000e-04 0.0000e+00 1.0000e+00
  1000022  1    3    3    0    0 +6.0948792815e+02 +6.3953643238e+02 +2.0106145788e+03 3.1441299858e+03 2.2500000000e+03 0.0000e+00 0.0000e+00
      -11  1    4    4    0    0 +4.5487194150e-03 -5.9244876437e-02 +1.1879829298e-01 1.3283049727e-01 5.1100000000e-04 0.0000e+00 -1.0000e+00
  1000022  1    4    4    0    0 -6.0961974379e+02 -6.3954325756e+02 +6.5282202006e+02 2.5038626960e+03 2.2500000000e+03 0.0000e+00 0.0000e+00
<mgrwt>
<rscale>  0 0.49807907E+04</rscale>
<asrwt>0</asrwt>
<pdfrwt beam="1">  1        2 0.63938425E+00 0.49807907E+04</pdfrwt>
<pdfrwt beam="2">  1       -2 0.22958735E+00 0.49807907E+04</pdfrwt>
<totfact> 0.15818989E-02</totfact>
</mgrwt>
</event>
<event>
 8      1 +1.2359593e-08 4.63504100e+03 7.81860800e-03 7.88741200e-02
        2 -1    0    0  501    0 +0.0000000000e+00 +0.0000000000e+00 +2.4950916559e+03 2.4950916559e+03 2.5500000000e-03 0.0000e+00 1.0000e+00
       -2 -1    0    0    0  501 -0.0000000000e+00 -0.0000000000e+00 -2.1525868113e+03 2.1525868113e+03 2.5500000000e-03 0.0000e+00 -1.0000e+00
  1000011  2    1    2    0    0 -2.6478085231e+02 +3.4624160758e+02 -1.7312713559e+02 2.2984596672e+03 2.2501003724e+03 1.0526e+03 0.0000e+00
 -1000011  2    1    2    0    0 +2.6478085231e+02 -3.4624160758e+02 +5.1563198012e+02 2.3492188000e+03 2.2501023268e+03 3.6937e+02 0.0000e+00
       11  1    3    3    0    0 +2.9091026062e-03 -8.0462457662e-02 +2.3936713120e-02 8.3999385396e-02 5.1100000000e-04 0.0000e+00 1.0000e+00
  1000022  1    3    3    0    0 -2.6478376142e+02 +3.4632207004e+02 -1.7315107230e+02 2.2983756678e+03 2.2500000000e+03 0.0000e+00 0.0000e+00
      -11  1    4    4    0    0 +4.9018746567e-02 -1.0988388175e-01 +2.8677702026e-03 1.2035692768e-01 5.1100000000e-04 0.0000e+00 -1.0000e+00
  1000022  1    4    4    0    0 +2.6473183357e+02 -3.4613172370e+02 +5.1562911235e+02 2.3490984431e+03 2.2500000000e+03 0.0000e+00 0.0000e+00
<mgrwt>
<rscale>  0 0.46350411E+04</rscale>
<asrwt>0</asrwt>
<pdfrwt beam="1">  1        2 0.38386026E+00 0.46350411E+04</pdfrwt>
<pdfrwt beam="2">  1       -2 0.33116720E+00 0.46350411E+04</pdfrwt>
<totfact> 0.53613547E-02</totfact>
</mgrwt>
</event>
<event>
 8      1 +1.2359593e-08 4.84557900e+03 7.81860800e-03 7.85278000e-02
        2 -1    0    0  501    0 +0.0000000000e+00 +0.0000000000e+00 +3.4015370970e+03 3.4015370970e+03 2.5500000000e-03 0.0000e+00 1.0000e+00
       -2 -1    0    0    0  501 -0.0000000000e+00 -0.0000000000e+00 -1.7256634358e+03 1.7256634358e+03 2.5500000000e-03 0.0000e+00 -1.0000e+00
  1000011  2    1    2    0    0 +1.6725940593e+02 -2.3758476062e+02 +1.7373585160e+03 2.8575830395e+03 2.2500986617e+03 8.6164e+02 0.0000e+00
 -1000011  2    1    2    0    0 -1.6725940593e+02 +2.3758476062e+02 -6.1484854758e+01 2.2696174933e+03 2.2501024313e+03 4.5949e+02 0.0000e+00
       11  1    3    3    0    0 -3.4093552431e-02 +5.4204763756e-02 +1.4769287383e-01 1.6097817423e-01 5.1100000000e-04 0.0000e+00 1.0000e+00
  1000022  1    3    3    0    0 +1.6729349948e+02 -2.3763896538e+02 +1.7372108231e+03 2.8574220614e+03 2.2500000000e+03 0.0000e+00 0.0000e+00
      -11  1    4    4    0    0 -1.0103943083e-02 +1.0930113825e-01 -3.3026837693e-02 1.1462923416e-01 5.1100000000e-04 0.0000e+00 -1.0000e+00
  1000022  1    4    4    0    0 -1.6724930199e+02 +2.3747545948e+02 -6.1451827920e+01 2.2695028641e+03 2.2500000000e+03 0.0000e+00 0.0000e+00
<mgrwt>
<rscale>  0 0.48455787E+04</rscale>
<asrwt>0</asrwt>
<pdfrwt beam="1">  1        2 0.52331340E+00 0.48455787E+04</pdfrwt>
<pdfrwt beam="2">  1       -2 0.26548668E+00 0.48455787E+04</pdfrwt>
<totfact> 0.36143283E-02</totfact>
</mgrwt>
</event>
<event>
 8      1 +1.2359593e-08 4.81580700e+03 7.81860800e-03 7.85756600e-02
       -2 -1    0    0    0  501 -0.0000000000e+00 +0.0000000000e+00 +1.3744600788e+03 1.3744600788e+03 2.5500000000e-03 0.0000e+00 -1.0000e+00
        2 -1    0    0  501    0 +0.0000000000e+00 -0.0000000000e+00 -4.2183840359e+03 4.2183840359e+03 2.5500000000e-03 0.0000e+00 1.0000e+00
  1000011  2    1    2    0    0 +1.2504598686e+02 +8.2514211142e+02 -1.1938740349e+03 2.6804424645e+03 2.2500979070e+03 1.1287e+03 0.0000e+00
 -1000011  2    1    2    0    0 -1.2504598686e+02 -8.2514211142e+02 -1.6500499222e+03 2.9124016503e+03 2.2500939145e+03 1.6823e+03 0.0000e+00
       11  1    3    3    0    0 +9.9206268973e-02 +9.2434619839e-03 -6.1029015349e-02 1.1684231676e-01 5.1100000000e-04 0.0000e+00 1.0000e+00
  1000022  1    3    3    0    0 +1.2494678059e+02 +8.2513286796e+02 -1.1938130059e+03 2.6803256222e+03 2.2500000000e+03 0.0000e+00 0.0000e+00
      -11  1    4    4    0    0 +7.4879463867e-03 +3.3173065423e-02 +3.0395990661e-02 4.5614679112e-02 5.1100000000e-04 0.0000e+00 -1.0000e+00
  1000022  1    4    4    0    0 -1.2505347480e+02 -8.2517528448e+02 -1.6500803182e+03 2.9123560356e+03 2.2500000000e+03 0.0000e+00 0.0000e+00
<mgrwt>
<rscale>  0 0.48158075E+04</rscale>
<asrwt>0</asrwt>
<pdfrwt beam="1">  1        2 0.64898215E+00 0.48158075E+04</pdfrwt>
<pdfrwt beam="2">  1       -2 0.21145540E+00 0.48158075E+04</pdfrwt>
<totfact> 0.18437100E-02</totfact>
</mgrwt>
</event>
<event>
 8      1 +1.2359593e-08 5.53953700e+03 7.81860800e-03 7.75027200e-02
        2 -1    0    0  501    0 +0.0000000000e+00 +0.0000000000e+00 +3.0864345418e+03 3.0864345418e+03 2.5500000000e-03 0.0000e+00 1.0000e+00
       -2 -1    0    0    0  501 -0.0000000000e+00 -0.0000000000e+00 -2.4855922497e+03 2.4855922497e+03 2.5500000000e-03 0.0000e+00 -1.0000e+00
  1000011  2    1    2    0    0 +7.7576226525e+02 -1.3993468485e+03 +5.2256115006e+02 2.8099767380e+03 2.2500934242e+03 8.0748e+02 0.0000e+00
 -1000011  2    1    2    0    0 -7.7576226525e+02 +1.3993468485e+03 +7.8281141999e+01 2.7620500535e+03 2.2500697470e+03 5.9236e+02 0.0000e+00
       11  1    3    3    0    0 -5.5592631815e-02 -5.5698017890e-02 +5.8545851888e-02 9.8085103544e-02 5.1100000000e-04 0.0000e+00 1.0000e+00
  1000022  1    3    3    0    0 +7.7581785788e+02 -1.3992911505e+03 +5.2250260421e+02 2.8098786529e+03 2.2500000000e+03 0.0000e+00 0.0000e+00
      -11  1    4    4    0    0 +4.1693571664e-02 +6.7467914246e-02 +1.1327242704e-03 7.9320976742e-02 5.1100000000e-04 0.0000e+00 -1.0000e+00
  1000022  1    4    4    0    0 -7.7580395882e+02 +1.3992793806e+03 +7.8280009275e+01 2.7619707325e+03 2.2500000000e+03 0.0000e+00 0.0000e+00
<mgrwt>
<rscale>  0 0.55395371E+04</rscale>
<asrwt>0</asrwt>
<pdfrwt beam="1">  1        2 0.47483608E+00 0.55395371E+04</pdfrwt>
<pdfrwt beam="2">  1       -2 0.38239881E+00 0.55395371E+04</pdfrwt>
<totfact> 0.10346332E-02</totfact>
</mgrwt>
</event>
<event>
 8      1 +1.2359593e-08 5.14313100e+03 7.81860800e-03 7.80679900e-02
       -2 -1    0    0    0  501 -0.0000000000e+00 +0.0000000000e+00 +5.4196157835e+03 5.4196157835e+03 2.5500000000e-03 0.0000e+00 -1.0000e+00
        2 -1    0    0  501    0 +0.0000000000e+00 -0.0000000000e+00 -1.2201877538e+03 1.2201877538e+03 2.5500000000e-03 0.0000e+00 1.0000e+00
  1000011  2    1    2    0    0 +6.3375894746e+02 +1.4220244209e+02 +7.2847568526e+02 2.4526395228e+03 2.2500870799e+03 9.3784e+01 0.0000e+00
 -1000011  2    1    2    0    0 -6.3375894746e+02 -1.4220244209e+02 +3.4709523444e+03 4.1871640145e+03 2.2501023019e+03 2.8302e+03 0.0000e+00
       11  1    3    3    0    0 +2.4935427056e-02 +8.8156584586e-02 +5.9696338614e-04 9.1618645040e-02 5.1100000000e-04 0.0000e+00 1.0000e+00
  1000022  1    3    3    0    0 +6.3373401203e+02 +1.4211428550e+02 +7.2847508830e+02 2.4525479042e+03 2.2500000000e+03 0.0000e+00 0.0000e+00
      -11  1    4    4    0    0 -1.0722972579e-01 +3.9253795651e-02 +9.4577455972e-02 1.4827080256e-01 5.1100000000e-04 0.0000e+00 -1.0000e+00
  1000022  1    4    4    0    0 -6.3365171773e+02 -1.4224169588e+02 +3.4708577669e+03 4.1870157437e+03 2.2500000000e+03 0.0000e+00 0.0000e+00
<mgrwt>
<rscale>  0 0.51431309E+04</rscale>
<asrwt>0</asrwt>
<pdfrwt beam="1">  1        2 0.18772119E+00 0.51431309E+04</pdfrwt>
<pdfrwt beam="2">  1       -2 0.83378705E+00 0.51431309E+04</pdfrwt>
<totfact> 0.59545256E-04</totfact>
</mgrwt>
</event>
<event>
 8      1 +1.2359593e-08 4.56657600e+03 7.81860800e-03 7.89908400e-02
       -2 -1    0    0    0  501 -0.0000000000e+00 +0.0000000000e+00 +2.3551016191e+03 2.3551016191e+03 2.5500000000e-03 0.0000e+00 -1.0000e+00
        2 -1    0    0  501    0 +0.0000000000e+00 -0.0000000000e+00 -2.2136646457e+03 2.2136646457e+03 2.5500000000e-03 0.0000e+00 1.0000e+00
  1000011  2    1    2    0    0 -2.4824092328e+02 +2.2140608675e+02 +2.7024555207e+02 2.2905571835e+03 2.2501056289e+03 5.5660e+02 0.0000e+00
 -1000011  2    1    2    0    0 +2.4824092328e+02 -2.2140608675e+02 -1.2880857872e+02 2.2782090813e+03 2.2501112766e+03 8.4676e+02 0.0000e+00
       11  1    3    3    0    0 -1.8054886887e-02 -8.5488365576e-03 -9.1901193517e-02 9.4048666208e-02 5.1100000000e-04 0.0000e+00 1.0000e+00
  1000022  1    3    3    0    0 -2.4822286839e+02 +2.2141463559e+02 +2.7033745327e+02 2.2904631348e+03 2.2500000000e+03 0.0000e+00 0.0000e+00
      -11  1    4    4    0    0 +2.0721962190e-02 +7.8317222866e-02 +6.0524758194e-02 1.0112612952e-01 5.1100000000e-04 0.0000e+00 -1.0000e+00
  1000022  1    4    4    0    0 +2.4822020132e+02 -2.2148440397e+02 -1.2886910348e+02 2.2781079552e+03 2.2500000000e+03 0.0000e+00 0.0000e+00
<mgrwt>
<rscale>  0 0.45665765E+04</rscale>
<asrwt>0</asrwt>
<pdfrwt beam="1">  1        2 0.34056379E+00 0.45665765E+04</pdfrwt>
<pdfrwt beam="2">  1       -2 0.36232333E+00 0.45665765E+04</pdfrwt>
<totfact> 0.49694324E-02</totfact>
</mgrwt>
</event>
<event>
 8      1 +1.2359593e-08 4.69193800e+03 7.81860800e-03 7.87786900e-02
        2 -1    0    0  501    0 +0.0000000000e+00 +0.0000000000e+00 +3.0899090232e+03 3.0899090232e+03 2.5500000000e-03 0.0000e+00 1.0000e+00
       -2 -1    0    0    0  501 -0.0000000000e+00 -0.0000000000e+00 -1.7811432807e+03 1.7811432807e+03 2.5500000000e-03 0.0000e+00 -1.0000e+00
  1000011  2    1    2    0    0 -2.4838172776e+01 +2.0751395383e+02 +2.9470549591e-01 2.2597850890e+03 2.2500999057e+03 3.7530e+02 0.0000e+00
 -1000011  2    1    2    0    0 +2.4838172776e+01 -2.0751395383e+02 +1.3084710370e+03 2.6112672148e+03 2.2500980061e+03 4.4934e+02 0.0000e+00
       11  1    3    3    0    0 -8.2655193931e-02 +1.3312576597e-02 +5.7584737445e-02 1.0161382093e-01 5.1100000000e-04 0.0000e+00 1.0000e+00
  1000022  1    3    3    0    0 -2.4755517582e+01 +2.0750064125e+02 +2.3712075846e-01 2.2596834752e+03 2.2500000000e+03 0.0000e+00 0.0000e+00
      -11  1    4    4    0    0 -5.0998125367e-02 +7.4318450271e-02 +4.8306378643e-02 1.0226342379e-01 5.1100000000e-04 0.0000e+00 -1.0000e+00
  1000022  1    4    4    0    0 +2.4889170901e+01 -2.0758827228e+02 +1.3084227306e+03 2.6111649514e+03 2.2500000000e+03 0.0000e+00 0.0000e+00
<mgrwt>
<rscale>  0 0.46919381E+04</rscale>
<asrwt>0</asrwt>
<pdfrwt beam="1">  1        2 0.47537061E+00 0.46919381E+04</pdfrwt>
<pdfrwt beam="2">  1       -2 0.27402205E+00 0.46919381E+04</pdfrwt>
<totfact> 0.52155032E-02</totfact>
</mgrwt>
</event>
<event>
 8      1 +1.2359593e-08 4.90056200e+03 7.81860800e-03 7.84403200e-02
       -2 -1    0    0    0  501 -0.0000000000e+00 +0.0000000000e+00 +3.0506617375e+03 3.0506617375e+03 2.5500000000e-03 0.0000e+00 -1.0000e+00
        2 -1    0    0  501    0 +0.0000000000e+00 -0.0000000000e+00 -1.9680576294e+03 1.9680576294e+03 2.5500000000e-03 0.0000e+00 1.0000e+00
  1000011  2    1    2    0    0 -1.9174628146e+02 +9.4533919179e+02 +4.3633887761e+02 2.4867181980e+03 2.2500984325e+03 1.3462e+03 0.0000e+00
 -1000011  2    1    2    0    0 +1.9174628146e+02 -9.4533919179e+02 +6.4626523052e+02 2.5320011689e+03 2.2500974084e+03 1.8294e+03 0.0000e+00
       11  1    3    3    0    0 -7.4583736395e-02 -3.3196129247e-02 -2.8811529808e-03 8.1690137287e-02 5.1100000000e-04 0.0000e+00 1.0000e+00
  1000022  1    3    3    0    0 -1.9167169773e+02 +9.4537238792e+02 +4.3634175877e+02 2.4866365078e+03 2.2500000000e+03 0.0000e+00 0.0000e+00
      -11  1    4    4    0    0 +9.6991482736e-02 -1.2261592494e-02 -2.6761726731e-03 9.7801416819e-02 5.1100000000e-04 0.0000e+00 -1.0000e+00
  1000022  1    4    4    0    0 +1.9164928998e+02 -9.4532693019e+02 +6.4626790669e+02 2.5319033675e+03 2.2500000000e+03 0.0000e+00 0.0000e+00
<mgrwt>
<rscale>  0 0.49005625E+04</rscale>
<asrwt>0</asrwt>
<pdfrwt beam="1">  1        2 0.30277810E+00 0.49005625E+04</pdfrwt>
<pdfrwt beam="2">  1       -2 0.46933257E+00 0.49005625E+04</pdfrwt>
<totfact> 0.13277033E-02</totfact>
</mgrwt>
</event>
<event>
 8      1 +1.2359593e-08 4.72281400e+03 7.81860800e-03 7.87274900e-02
        2 -1    0    0  501    0 +0.0000000000e+00 +0.0000000000e+00 +3.7233264548e+03 3.7233264548e+03 2.5500000000e-03 0.0000e+00 1.0000e+00
       -2 -1    0    0    0  501 -0.0000000000e+00 -0.0000000000e+00 -1.4976509749e+03 1.4976509749e+03 2.5500000000e-03 0.0000e+00 -1.0000e+00
  1000011  2    1    2    0    0 -2.7643750608e+02 -5.4641005924e+02 +7.0170778612e+02 2.4352256174e+03 2.2500996295e+03 9.4899e+02 0.0000e+00
 -1000011  2    1    2    0    0 +2.7643750608e+02 +5.4641005924e+02 +1.5239676938e+03 2.7857518124e+03 2.2501008823e+03 2.1495e+03 0.0000e+00
       11  1    3    3    0    0 +6.3375146738e-03 +3.2710365024e-02 +1.1112753764e-01 1.1601604401e-01 5.1100000000e-04 0.0000e+00 1.0000e+00
  1000022  1    3    3    0    0 -2.7644384360e+02 -5.4644276961e+02 +7.0159665858e+02 2.4351096013e+03 2.2500000000e+03 0.0000e+00 0.0000e+00
      -11  1    4    4    0    0 +1.3251192116e-02 +2.8541964986e-02 -5.1405172817e-02 6.0274293305e-02 5.1100000000e-04 0.0000e+00 -1.0000e+00
  1000022  1    4    4    0    0 +2.7642425489e+02 +5.4638151728e+02 +1.5240190990e+03 2.7856915381e+03 2.2500000000e+03 0.0000e+00 0.0000e+00
<mgrwt>
<rscale>  0 0.47228142E+04</rscale>
<asrwt>0</asrwt>
<pdfrwt beam="1">  1        2 0.57281945E+00 0.47228142E+04</pdfrwt>
<pdfrwt beam="2">  1       -2 0.23040785E+00 0.47228142E+04</pdfrwt>
<totfact> 0.35377488E-02</totfact>
</mgrwt>
</event>
<event>
 8      1 +1.2359593e-08 4.55398200e+03 7.81860800e-03 7.90125400e-02
        1 -1    0    0  501    0 +0.0000000000e+00 +0.0000000000e+00 +1.9013822096e+03 1.9013822096e+03 5.0400000000e-03 0.0000e+00 1.0000e+00
       -1 -1    0    0    0  501 -0.0000000000e+00 -0.0000000000e+00 -2.7267991162e+03 2.7267991162e+03 5.0400000000e-03 0.0000e+00 -1.0000e+00
  1000011  2    1    2    0    0 +3.4522475861e+02 +5.0286832834e+01 -4.1823046147e+02 2.3150747626e+03 2.2500990063e+03 3.2916e+00 0.0000e+00
 -1000011  2    1    2    0    0 -3.4522475861e+02 -5.0286832834e+01 -4.0718644514e+02 2.3131065631e+03 2.2501005026e+03 3.0639e+03 0.0000e+00
       11  1    3    3    0    0 +1.1959714960e-02 -6.8430110096e-02 +5.2451600840e-02 8.7046803049e-02 5.1100000000e-04 0.0000e+00 1.0000e+00
  1000022  1    3    3    0    0 +3.4521279889e+02 +5.0355262944e+01 -4.1828291307e+02 2.3149877158e+03 2.2500000000e+03 0.0000e+00 0.0000e+00
      -11  1    4    4    0    0 -4.0792550119e-02 +6.2089182282e-02 +5.5496430697e-02 9.2731943137e-02 5.1100000000e-04 0.0000e+00 -1.0000e+00
  1000022  1    4    4    0    0 -3.4518396606e+02 -5.0348922016e+01 -4.0724194157e+02 2.3130138312e+03 2.2500000000e+03 0.0000e+00 0.0000e+00
<mgrwt>
<rscale>  0 0.45539817E+04</rscale>
<asrwt>0</asrwt>
<pdfrwt beam="1">  1        1 0.29252034E+00 0.45539817E+04</pdfrwt>
<pdfrwt beam="2">  1       -1 0.41950756E+00 0.45539817E+04</pdfrwt>
<totfact> 0.13669787E-02</totfact>
</mgrwt>
</event>
<event>
 8      1 +1.2359593e-08 5.14098100e+03 7.81860800e-03 7.80712000e-02
       -2 -1    0    0    0  501 -0.0000000000e+00 +0.0000000000e+00 +1.6873063088e+03 1.6873063088e+03 2.5500000000e-03 0.0000e+00 -1.0000e+00
        2 -1    0    0  501    0 +0.0000000000e+00 -0.0000000000e+00 -3.9159582369e+03 3.9159582369e+03 2.5500000000e-03 0.0000e+00 1.0000e+00
  1000011  2    1    2    0    0 +5.3286376041e+01 +1.0662515766e+03 -4.2095437669e+02 2.5258430569e+03 2.2500997085e+03 1.1123e+03 0.0000e+00
 -1000011  2    1    2    0    0 -5.3286376041e+01 -1.0662515766e+03 -1.8076975514e+03 3.0774214889e+03 2.2501157127e+03 8.6547e+02 0.0000e+00
       11  1    3    3    0    0 +8.5306275950e-03 +1.3133728528e-01 -8.9996664785e-02 1.5944251291e-01 5.1100000000e-04 0.0000e+00 1.0000e+00
  1000022  1    3    3    0    0 +5.3277845414e+01 +1.0661202393e+03 -4.2086438003e+02 2.5256836144e+03 2.2500000000e+03 0.0000e+00 0.0000e+00
      -11  1    4    4    0    0 -1.1044509717e-03 -1.5943065051e-01 -4.3037498959e-02 1.6514187628e-01 5.1100000000e-04 0.0000e+00 -1.0000e+00
  1000022  1    4    4    0    0 -5.3285271590e+01 -1.0660921459e+03 -1.8076545139e+03 3.0772563470e+03 2.2500000000e+03 0.0000e+00 0.0000e+00
<mgrwt>
<rscale>  0 0.51409809E+04</rscale>
<asrwt>0</asrwt>
<pdfrwt beam="1">  1        2 0.60245511E+00 0.51409809E+04</pdfrwt>
<pdfrwt beam="2">  1       -2 0.25958559E+00 0.51409809E+04</pdfrwt>
<totfact> 0.16067676E-02</totfact>
</mgrwt>
</event>
<event>
 8      1 +1.2359593e-08 5.39417500e+03 7.81860800e-03 7.77042100e-02
        1 -1    0    0  501    0 +0.0000000000e+00 +0.0000000000e+00 +2.0967110607e+03 2.0967110607e+03 5.0400000000e-03 0.0000e+00 1.0000e+00
       -1 -1    0    0    0  501 -0.0000000000e+00 -0.0000000000e+00 -3.4693765401e+03 3.4693765401e+03 5.0400000000e-03 0.0000e+00 -1.0000e+00
  1000011  2    1    2    0    0 -1.2219426208e+03 -6.3683753741e+01 +1.8566551675e+02 2.5679995930e+03 2.2501001837e+03 1.8806e+03 0.0000e+00
 -1000011  2    1    2    0    0 +1.2219426208e+03 +6.3683753741e+01 -1.5583309961e+03 2.9980880078e+03 2.2500970690e+03 8.5300e+02 0.0000e+00
       11  1    3    3    0    0 -6.8488529912e-02 +9.5606990828e-02 -4.3046012730e-03 1.1768672703e-01 5.1100000000e-04 0.0000e+00 1.0000e+00
  1000022  1    3    3    0    0 -1.2218741323e+03 -6.3779360732e+01 +1.8566982135e+02 2.5678819063e+03 2.2500000000e+03 0.0000e+00 0.0000e+00
      -11  1    4    4    0    0 +9.1312517098e-02 -1.4933418518e-02 -1.8248003685e-01 2.0459767136e-01 5.1100000000e-04 0.0000e+00 -1.0000e+00
  1000022  1    4    4    0    0 +1.2218513083e+03 +6.3698687159e+01 -1.5581485161e+03 2.9978834101e+03 2.2500000000e+03 0.0000e+00 0.0000e+00
<mgrwt>
<rscale>  0 0.53941747E+04</rscale>
<asrwt>0</asrwt>
<pdfrwt beam="1">  1        1 0.32257093E+00 0.53941747E+04</pdfrwt>
<pdfrwt beam="2">  1       -1 0.53375023E+00 0.53941747E+04</pdfrwt>
<totfact> 0.16763157E-03</totfact>
</mgrwt>
</event>
<event>
 8      1 +1.2359593e-08 4.85452300e+03 7.81860800e-03 7.85134900e-02
       -1 -1    0    0    0  501 -0.0000000000e+00 +0.0000000000e+00 +1.8222533911e+03 1.8222533911e+03 5.0400000000e-03 0.0000e+00 -1.0000e+00
        1 -1    0    0  501    0 +0.0000000000e+00 -0.0000000000e+00 -3.2331387788e+03 3.2331387788e+03 5.0400000000e-03 0.0000e+00 1.0000e+00
  1000011  2    1    2    0    0 -2.8488141889e+02 -1.2542608539e+01 -1.6057002027e+03 2.7789453034e+03 2.2500998019e+03 2.5073e+03 0.0000e+00
 -1000011  2    1    2    0    0 +2.8488141889e+02 +1.2542608539e+01 +1.9481481505e+02 2.2764468665e+03 2.2500983942e+03 1.6398e+02 0.0000e+00
       11  1    3    3    0    0 +7.7037763888e-02 +5.5507553820e-03 -1.1813456215e-01 1.4114412252e-01 5.1100000000e-04 0.0000e+00 1.0000e+00
  1000022  1    3    3    0    0 -2.8495845665e+02 -1.2548159295e+01 -1.6055820681e+03 2.7788041593e+03 2.2500000000e+03 0.0000e+00 0.0000e+00
      -11  1    4    4    0    0 -7.3926562745e-02 -1.5194139358e-02 +5.3468313305e-02 9.2493890753e-02 5.1100000000e-04 0.0000e+00 -1.0000e+00
  1000022  1    4    4    0    0 +2.8495534545e+02 +1.2557802679e+01 +1.9476134674e+02 2.2763543726e+03 2.2500000000e+03 0.0000e+00 0.0000e+00
<mgrwt>
<rscale>  0 0.48545229E+04</rscale>
<asrwt>0</asrwt>
<pdfrwt beam="1">  1        1 0.49740596E+00 0.48545229E+04</pdfrwt>
<pdfrwt beam="2">  1       -1 0.28034668E+00 0.48545229E+04</pdfrwt>
<totfact> 0.12971877E-02</totfact>
</mgrwt>
</event>
<event>
 8      1 +1.2359593e-08 4.97606900e+03 7.81860800e-03 7.83220900e-02
       -2 -1    0    0    0  501 -0.0000000000e+00 +0.0000000000e+00 +3.0781720412e+03 3.0781720412e+03 2.5500000000e-03 0.0000e+00 -1.0000e+00
        2 -1    0    0  501    0 +0.0000000000e+00 -0.0000000000e+00 -2.0110364877e+03 2.0110364877e+03 2.5500000000e-03 0.0000e+00 1.0000e+00
  1000011  2    1    2    0    0 -2.4834503097e+02 +3.3939800148e+02 -4.6353521225e+02 2.3355251504e+03 2.2500992372e+03 1.4452e+03 0.0000e+00
 -1000011  2    1    2    0    0 +2.4834503097e+02 -3.3939800148e+02 +1.5306707658e+03 2.7536833785e+03 2.2501006418e+03 9.6203e+01 0.0000e+00
       11  1    3    3    0    0 -7.3034263241e-03 -5.7218419951e-02 +5.2096075226e-02 7.7727407558e-02 5.1100000000e-04 0.0000e+00 1.0000e+00
  1000022  1    3    3    0    0 -2.4833772755e+02 +3.3945521990e+02 -4.6358730833e+02 2.3354474230e+03 2.2500000000e+03 0.0000e+00 0.0000e+00
      -11  1    4    4    0    0 +5.4228394894e-02 -1.1657636047e-02 +1.8066194768e-01 1.8898576563e-01 5.1100000000e-04 0.0000e+00 -1.0000e+00
  1000022  1    4    4    0    0 +2.4829080258e+02 -3.3938634385e+02 +1.5304901038e+03 2.7534943928e+03 2.2500000000e+03 0.0000e+00 0.0000e+00
<mgrwt>
<rscale>  0 0.49760692E+04</rscale>
<asrwt>0</asrwt>
<pdfrwt beam="1">  1        2 0.30939023E+00 0.49760692E+04</pdfrwt>
<pdfrwt beam="2">  1       -2 0.47356493E+00 0.49760692E+04</pdfrwt>
<totfact> 0.11729271E-02</totfact>
</mgrwt>
</event>
<event>
 8      1 +1.2359593e-08 4.73736800e+03 7.81860800e-03 7.87034900e-02
        2 -1    0    0  501    0 +0.0000000000e+00 +0.0000000000e+00 +2.7586606010e+03 2.7586606010e+03 2.5500000000e-03 0.0000e+00 1.0000e+00
       -2 -1    0    0    0  501 -0.0000000000e+00 -0.0000000000e+00 -2.0338363205e+03 2.0338363205e+03 2.5500000000e-03 0.0000e+00 -1.0000e+00
  1000011  2    1    2    0    0 -2.4182515765e+01 +4.0399806938e+01 -3.8475880653e+02 2.2832464198e+03 2.2501017612e+03 5.0101e+00 0.0000e+00
 -1000011  2    1    2    0    0 +2.4182515765e+01 -4.0399806938e+01 +1.1095830870e+03 2.5092505017e+03 2.2500992233e+03 6.7839e+02 0.0000e+00
       11  1    3    3    0    0 -9.0128234528e-02 +2.6504784930e-02 -6.0925013936e-02 1.1197196224e-01 5.1100000000e-04 0.0000e+00 1.0000e+00
  1000022  1    3    3    0    0 -2.4092387531e+01 +4.0373302153e+01 -3.8469788152e+02 2.2831344478e+03 2.2500000000e+03 0.0000e+00 0.0000e+00
      -11  1    4    4    0    0 -9.3349968327e-02 -2.8490715763e-02 +3.2239611310e-02 1.0278905938e-01 5.1100000000e-04 0.0000e+00 -1.0000e+00
  1000022  1    4    4    0    0 +2.4275865733e+01 -4.0371316223e+01 +1.1095508474e+03 2.5091477126e+03 2.2500000000e+03 0.0000e+00 0.0000e+00
<mgrwt>
<rscale>  0 0.47373681E+04</rscale>
<asrwt>0</asrwt>
<pdfrwt beam="1">  1        2 0.42440932E+00 0.47373681E+04</pdfrwt>
<pdfrwt beam="2">  1       -2 0.31289789E+00 0.47373681E+04</pdfrwt>
<totfact> 0.48211096E-02</totfact>
</mgrwt>
</event>
<event>
 8      1 +1.2359593e-08 7.17905600e+03 7.81860800e-03 7.55924600e-02
       -2 -1    0    0    0  501 -0.0000000000e+00 +0.0000000000e+00 +3.9900842405e+03 3.9900842405e+03 2.5500000000e-03 0.0000e+00 -1.0000e+00
        2 -1    0    0  501    0 +0.0000000000e+00 -0.0000000000e+00 -3.2291823662e+03 3.2291823662e+03 2.5500000000e-03 0.0000e+00 1.0000e+00
  1000011  2    1    2    0    0 +1.4393635710e+03 +2.3994790381e+02 -2.0187937660e+03 3.3567544954e+03 2.2500955507e+03 1.3993e+03 0.0000e+00
 -1000011  2    1    2    0    0 -1.4393635710e+03 -2.3994790381e+02 +2.7796956403e+03 3.8625121112e+03 2.2500998802e+03 8.0396e+02 0.0000e+00
       11  1    3    3    0    0 +1.4457967258e-01 -4.9961848825e-02 -1.2785209443e-01 1.9936370512e-01 5.1100000000e-04 0.0000e+00 1.0000e+00
  1000022  1    3    3    0    0 +1.4392189913e+03 +2.3999786566e+02 -2.0186659139e+03 3.3565551317e+03 2.2500000000e+03 0.0000e+00 0.0000e+00
      -11  1    4    4    0    0 -1.3121025369e-01 -2.1203198010e-02 +2.7976099933e-01 3.0972921046e-01 5.1100000000e-04 0.0000e+00 -1.0000e+00
  1000022  1    4    4    0    0 -1.4392323607e+03 -2.3992670061e+02 +2.7794158793e+03 3.8622023820e+03 2.2500000000e+03 0.0000e+00 0.0000e+00
<mgrwt>
<rscale>  0 0.71790556E+04</rscale>
<asrwt>0</asrwt>
<pdfrwt beam="1">  1        2 0.49679729E+00 0.71790556E+04</pdfrwt>
<pdfrwt beam="2">  1       -2 0.61385911E+00 0.71790556E+04</pdfrwt>
<totfact> 0.35367929E-04</totfact>
</mgrwt>
</event>
<event>
 8      1 +1.2359593e-08 5.31268900e+03 7.81860800e-03 7.78200300e-02
        2 -1    0    0  501    0 +0.0000000000e+00 +0.0000000000e+00 +1.9813167996e+03 1.9813167996e+03 2.5500000000e-03 0.0000e+00 1.0000e+00
       -2 -1    0    0    0  501 -0.0000000000e+00 -0.0000000000e+00 -3.5613511197e+03 3.5613511197e+03 2.5500000000e-03 0.0000e+00 -1.0000e+00
  1000011  2    1    2    0    0 -4.0159031824e+02 +9.1555172087e+02 -1.8300171238e+03 3.0678040913e+03 2.2500998938e+03 2.7986e+01 0.0000e+00
 -1000011  2    1    2    0    0 +4.0159031824e+02 -9.1555172087e+02 +2.4998280371e+02 2.4748638279e+03 2.2500999594e+03 1.8270e+03 0.0000e+00
       11  1    3    3    0    0 +4.6043109383e-03 -4.5494655128e-02 +1.7166500518e-02 4.8845804948e-02 5.1100000000e-04 0.0000e+00 1.0000e+00
  1000022  1    3    3    0    0 -4.0159492255e+02 +9.1559721552e+02 -1.8300342903e+03 3.0677552455e+03 2.2500000000e+03 0.0000e+00 0.0000e+00
      -11  1    4    4    0    0 +1.4399251186e-02 -1.4041437961e-01 -2.2322488198e-02 1.4290588117e-01 5.1100000000e-04 0.0000e+00 -1.0000e+00
  1000022  1    4    4    0    0 +4.0157591899e+02 -9.1541130649e+02 +2.5000512620e+02 2.4747209220e+03 2.2500000000e+03 0.0000e+00 0.0000e+00
<mgrwt>
<rscale>  0 0.53126885E+04</rscale>
<asrwt>0</asrwt>
<pdfrwt beam="1">  1        2 0.30481797E+00 0.53126885E+04</pdfrwt>
<pdfrwt beam="2">  1       -2 0.54790017E+00 0.53126885E+04</pdfrwt>
<totfact> 0.43084503E-03</totfact>
</mgrwt>
</event>
<event>
 8      1 +1.2359593e-08 7.29891800e+03 7.81860800e-03 7.54737000e-02
       -1 -1    0    0    0  501 -0.0000000000e+00 +0.0000000000e+00 +3.4325025818e+03 3.4325025818e+03 5.0400000000e-03 0.0000e+00 -1.0000e+00
        1 -1    0    0  501    0 +0.0000000000e+00 -0.0000000000e+00 -3.8801287135e+03 3.8801287135e+03 5.0400000000e-03 0.0000e+00 1.0000e+00
  1000011  2    1    2    0    0 -1.7558133716e+03 -8.4723842221e+02 +1.8908183881e+03 3.5268721149e+03 2.2500975974e+03 1.5148e+03 0.0000e+00
 -1000011  2    1    2    0    0 +1.7558133716e+03 +8.4723842221e+02 -2.3384445198e+03 3.7857591804e+03 2.2501013889e+03 1.0541e+03 0.0000e+00
       11  1    3    3    0    0 -2.2297749417e-02 -7.6023099711e-02 -1.8958125500e-02 8.1463934726e-02 5.1100000000e-04 0.0000e+00 1.0000e+00
  1000022  1    3    3    0    0 -1.7557910739e+03 -8.4716239911e+02 +1.8908373462e+03 3.5267906509e+03 2.2500000000e+03 0.0000e+00 0.0000e+00
      -11  1    4    4    0    0 +1.7211114780e-01 -2.1191418891e-05 -8.1560397465e-02 1.9045893702e-01 5.1100000000e-04 0.0000e+00 -1.0000e+00
  1000022  1    4    4    0    0 +1.7556412605e+03 +8.4723844340e+02 -2.3383629594e+03 3.7855687215e+03 2.2500000000e+03 0.0000e+00 0.0000e+00
<mgrwt>
<rscale>  0 0.72989182E+04</rscale>
<asrwt>0</asrwt>
<pdfrwt beam="1">  1        1 0.59694288E+00 0.72989182E+04</pdfrwt>
<pdfrwt beam="2">  1       -1 0.52807732E+00 0.72989182E+04</pdfrwt>
<totfact> 0.75031989E-05</totfact>
</mgrwt>
</event>
<event>
 8      1 +1.2359593e-08 5.15261500e+03 7.81860800e-03 7.80538700e-02
       -1 -1    0    0    0  501 -0.0000000000e+00 +0.0000000000e+00 +2.2267156997e+03 2.2267156997e+03 5.0400000000e-03 0.0000e+00 -1.0000e+00
        1 -1    0    0  501    0 +0.0000000000e+00 -0.0000000000e+00 -2.9807844372e+03 2.9807844372e+03 5.0400000000e-03 0.0000e+00 1.0000e+00
  1000011  2    1    2    0    0 -1.2232828874e+03 -2.3336568662e+02 -5.3204433267e+02 2.6261942927e+03 2.2500988256e+03 8.5260e+02 0.0000e+00
 -1000011  2    1    2    0    0 +1.2232828874e+03 +2.3336568662e+02 -2.2202440483e+02 2.5813058443e+03 2.2501032107e+03 3.5191e+03 0.0000e+00
       11  1    3    3    0    0 -1.3112637918e-01 +5.4828435809e-02 -7.0336064756e-03 1.4230255425e-01 5.1100000000e-04 0.0000e+00 1.0000e+00
  1000022  1    3    3    0    0 -1.2231517611e+03 -2.3342051506e+02 -5.3203729906e+02 2.6260519902e+03 2.2500000000e+03 0.0000e+00 0.0000e+00
      -11  1    4    4    0    0 +9.1959149981e-02 -6.0687173134e-02 +5.5343407539e-02 1.2329870872e-01 5.1100000000e-04 0.0000e+00 -1.0000e+00
  1000022  1    4    4    0    0 +1.2231909283e+03 +2.3342637379e+02 -2.2207974824e+02 2.5811825456e+03 2.2500000000e+03 0.0000e+00 0.0000e+00
<mgrwt>
<rscale>  0 0.51526147E+04</rscale>
<asrwt>0</asrwt>
<pdfrwt beam="1">  1        1 0.45858222E+00 0.51526147E+04</pdfrwt>
<pdfrwt beam="2">  1       -1 0.34257165E+00 0.51526147E+04</pdfrwt>
<totfact> 0.76623489E-03</totfact>
</mgrwt>
</event>
<event>
 8      1 +1.2359593e-08 5.08275800e+03 7.81860800e-03 7.81586600e-02
        2 -1    0    0  501    0 +0.0000000000e+00 +0.0000000000e+00 +3.3632890985e+03 3.3632890985e+03 2.5500000000e-03 0.0000e+00 1.0000e+00
       -2 -1    0    0    0  501 -0.0000000000e+00 -0.0000000000e+00 -1.9203249952e+03 1.9203249952e+03 2.5500000000e-03 0.0000e+00 -1.0000e+00
  1000011  2    1    2    0    0 +1.5514282301e+02 +4.5077759197e+02 -4.0216009779e+02 2.3349410206e+03 2.2500993516e+03 1.6470e+03 0.0000e+00
 -1000011  2    1    2    0    0 -1.5514282301e+02 -4.5077759197e+02 +1.8451242011e+03 2.9486730731e+03 2.2500932962e+03 4.2799e+02 0.0000e+00
       11  1    3    3    0    0 +1.0284071882e-01 -2.4562132769e-03 -5.2704426845e-03 1.0300623761e-01 5.1100000000e-04 0.0000e+00 1.0000e+00
  1000022  1    3    3    0    0 +1.5503998230e+02 +4.5078004819e+02 -4.0215482734e+02 2.3348380143e+03 2.2500000000e+03 0.0000e+00 0.0000e+00
      -11  1    4    4    0    0 -5.6791975238e-02 +2.3974510558e-02 -1.2246051572e-02 6.2851668301e-02 5.1100000000e-04 0.0000e+00 -1.0000e+00
  1000022  1    4    4    0    0 -1.5508603104e+02 -4.5080156648e+02 +1.8451364472e+03 2.9486102214e+03 2.2500000000e+03 0.0000e+00 0.0000e+00
<mgrwt>
<rscale>  0 0.50827584E+04</rscale>
<asrwt>0</asrwt>
<pdfrwt beam="1">  1        2 0.51742908E+00 0.50827584E+04</pdfrwt>
<pdfrwt beam="2">  1       -2 0.29543462E+00 0.50827584E+04</pdfrwt>
<totfact> 0.24720460E-02</totfact>
</mgrwt>
</event>
<event>
 8      1 +1.2359593e-08 4.61963800e+03 7.81860800e-03 7.89002000e-02
        1 -1    0    0  501    0 +0.0000000000e+00 +0.0000000000e+00 +3.1280355683e+03 3.1280355683e+03 5.0400000000e-03 0.0000e+00 1.0000e+00
       -1 -1    0    0    0  501 -0.0000000000e+00 -0.0000000000e+00 -1.7056275204e+03 1.7056275204e+03 5.0400000000e-03 0.0000e+00 -1.0000e+00
  1000011  2    1    2    0    0 -7.7636405976e+01 -2.0110423922e+02 +2.1395920481e+02 2.2705078380e+03 2.2501015476e+03 1.3660e+01 0.0000e+00
 -1000011  2    1    2    0    0 +7.7636405976e+01 +2.0110423922e+02 +1.2084488431e+03 2.5631552507e+03 2.2500990881e+03 1.3588e+03 0.0000e+00
       11  1    3    3    0    0 +9.2958939941e-02 -6.1898974835e-03 +4.1249537762e-02 1.0188947184e-01 5.1100000000e-04 0.0000e+00 1.0000e+00
  1000022  1    3    3    0    0 -7.7729364916e+01 -2.0109804932e+02 +2.1391795527e+02 2.2704059485e+03 2.2500000000e+03 0.0000e+00 0.0000e+00
      -11  1    4    4    0    0 -2.1830037644e-02 -3.1276877178e-02 -4.7941800167e-02 6.1265576777e-02 5.1100000000e-04 0.0000e+00 -1.0000e+00
  1000022  1    4    4    0    0 +7.7658236013e+01 +2.0113551610e+02 +1.2084967849e+03 2.5630939851e+03 2.2500000000e+03 0.0000e+00 0.0000e+00
<mgrwt>
<rscale>  0 0.46196379E+04</rscale>
<asrwt>0</asrwt>
<pdfrwt beam="1">  1        1 0.48123624E+00 0.46196379E+04</pdfrwt>
<pdfrwt beam="2">  1       -1 0.26240423E+00 0.46196379E+04</pdfrwt>
<totfact> 0.20713223E-02</totfact>
</mgrwt>
</event>
<event>
 8      1 +1.2359593e-08 5.26758500e+03 7.81860800e-03 7.78850500e-02
        2 -1    0    0  501    0 +0.0000000000e+00 +0.0000000000e+00 +2.7168557563e+03 2.7168557563e+03 2.5500000000e-03 0.0000e+00 1.0000e+00
       -2 -1    0    0    0  501 -0.0000000000e+00 -0.0000000000e+00 -2.5532687000e+03 2.5532687000e+03 2.5500000000e-03 0.0000e+00 -1.0000e+00
  1000011  2    1    2    0    0 +2.8647835487e+02 +9.4897796521e+02 +1.0263214960e+03 2.6643821085e+03 2.2501038155e+03 4.3692e+02 0.0000e+00
 -1000011  2    1    2    0    0 -2.8647835487e+02 -9.4897796521e+02 -8.6273443971e+02 2.6057423478e+03 2.2501007629e+03 3.3498e+03 0.0000e+00
       11  1    3    3    0    0 +3.0360069164e-02 +1.0057998361e-01 +1.5321700496e-01 1.8577884167e-01 5.1100000000e-04 0.0000e+00 1.0000e+00
  1000022  1    3    3    0    0 +2.8644799480e+02 +9.4887738523e+02 +1.0261682790e+03 2.6641963296e+03 2.2500000000e+03 0.0000e+00 0.0000e+00
      -11  1    4    4    0    0 +3.0253563022e-02 -1.3840596613e-01 -6.1539035380e-02 1.5446295069e-01 5.1100000000e-04 0.0000e+00 -1.0000e+00
  1000022  1    4    4    0    0 -2.8650860843e+02 -9.4883955924e+02 -8.6267290068e+02 2.6055878848e+03 2.2500000000e+03 0.0000e+00 0.0000e+00
<mgrwt>
<rscale>  0 0.52675849E+04</rscale>
<asrwt>0</asrwt>
<pdfrwt beam="1">  1        2 0.41797781E+00 0.52675849E+04</pdfrwt>
<pdfrwt beam="2">  1       -2 0.39281057E+00 0.52675849E+04</pdfrwt>
<totfact> 0.15303222E-02</totfact>
</mgrwt>
</event>
<event>
 8      1 +1.2359593e-08 5.16239100e+03 7.81860800e-03 7.80393400e-02
       -2 -1    0    0    0  501 -0.0000000000e+00 +0.0000000000e+00 +1.9096990835e+03 1.9096990835e+03 2.5500000000e-03 0.0000e+00 -1.0000e+00
        2 -1    0    0  501    0 +0.0000000000e+00 -0.0000000000e+00 -3.4888064987e+03 3.4888064987e+03 2.5500000000e-03 0.0000e+00 1.0000e+00
  1000011  2    1    2    0    0 +1.8072662750e+01 +1.2106113115e+03 -1.1719470272e+03 2.8111061456e+03 2.2501003441e+03 1.4538e+03 0.0000e+00
 -1000011  2    1    2    0    0 -1.8072662750e+01 -1.2106113115e+03 -4.0716038800e+02 2.5873994366e+03 2.2500999743e+03 8.2492e+02 0.0000e+00
       11  1    3    3    0    0 -1.7115172681e-02 +1.5741406311e-01 -1.1640898389e-01 1.9652844238e-01 5.1100000000e-04 0.0000e+00 1.0000e+00
  1000022  1    3    3    0    0 +1.8089777923e+01 +1.2104538975e+03 -1.1718306182e+03 2.8109096172e+03 2.2500000000e+03 0.0000e+00 0.0000e+00
      -11  1    4    4    0    0 +5.1715561777e-02 +4.2949481811e-02 -7.1089679103e-03 6.7601447452e-02 5.1100000000e-04 0.0000e+00 -1.0000e+00
  1000022  1    4    4    0    0 -1.8124378312e+01 -1.2106542610e+03 -4.0715327904e+02 2.5873318352e+03 2.2500000000e+03 0.0000e+00 0.0000e+00
<mgrwt>
<rscale>  0 0.51623911E+04</rscale>
<asrwt>0</asrwt>
<pdfrwt beam="1">  1        2 0.53673946E+00 0.51623911E+04</pdfrwt>
<pdfrwt beam="2">  1       -2 0.29379986E+00 0.51623911E+04</pdfrwt>
<totfact> 0.20594543E-02</totfact>
</mgrwt>
</event>
<event>
 8      1 +1.2359593e-08 5.66105600e+03 7.81860800e-03 7.73390800e-02
       -2 -1    0    0    0  501 -0.0000000000e+00 +0.0000000000e+00 +2.2864553878e+03 2.2864553878e+03 2.5500000000e-03 0.0000e+00 -1.0000e+00
        2 -1    0    0  501    0 +0.0000000000e+00 -0.0000000000e+00 -3.5040650750e+03 3.5040650750e+03 2.5500000000e-03 0.0000e+00 1.0000e+00
  1000011  2    1    2    0    0 +1.4647938237e+02 -4.8734021159e+02 +1.0688372643e+03 2.5424829096e+03 2.2500776779e+03 1.4646e+02 0.0000e+00
 -1000011  2    1    2    0    0 -1.4647938237e+02 +4.8734021159e+02 -2.2864469516e+03 3.2480375532e+03 2.2501003519e+03 4.4213e+02 0.0000e+00
       11  1    3    3    0    0 +4.0312807123e-02 -3.8532711005e-02 -3.2760675542e-02 6.4679321075e-02 5.1100000000e-04 0.0000e+00 1.0000e+00
  1000022  1    3    3    0    0 +1.4643906956e+02 -4.8730167888e+02 +1.0688700250e+03 2.5424182303e+03 2.2500000000e+03 0.0000e+00 0.0000e+00
      -11  1    4    4    0    0 +3.8337305080e-02 -6.3702430098e-02 -3.2612924640e-02 8.1188744267e-02 5.1100000000e-04 0.0000e+00 -1.0000e+00
  1000022  1    4    4    0    0 -1.4651771967e+02 +4.8740391402e+02 -2.2864143387e+03 3.2479563645e+03 2.2500000000e+03 0.0000e+00 0.0000e+00
<mgrwt>
<rscale>  0 0.56610559E+04</rscale>
<asrwt>0</asrwt>
<pdfrwt beam="1">  1        2 0.53908694E+00 0.56610559E+04</pdfrwt>
<pdfrwt beam="2">  1       -2 0.35176237E+00 0.56610559E+04</pdfrwt>
<totfact> 0.84464820E-03</totfact>
</mgrwt>
</event>
<event>
 8      1 +1.2359593e-08 4.64655400e+03 7.81860800e-03 7.88547000e-02
        2 -1    0    0  501    0 +0.0000000000e+00 +0.0000000000e+00 +2.7085897900e+03 2.7085897901e+03 2.5500000000e-03 0.0000e+00 1.0000e+00
       -2 -1    0    0    0  501 -0.0000000000e+00 -0.0000000000e+00 -1.9927774314e+03 1.9927774314e+03 2.5500000000e-03 0.0000e+00 -1.0000e+00
  1000011  2    1    2    0    0 -3.2202384997e+02 +3.0506638059e+02 +7.3364531100e+02 2.4078940408e+03 2.2501007561e+03 9.2177e+02 0.0000e+00
 -1000011  2    1    2    0    0 +3.2202384997e+02 -3.0506638059e+02 -1.7832952384e+01 2.2934731807e+03 2.2500969668e+03 1.6810e+03 0.0000e+00
       11  1    3    3    0    0 +1.5981050057e-02 +1.0985786552e-01 +2.8488716246e-02 1.1461244468e-01 5.1100000000e-04 0.0000e+00 1.0000e+00
  1000022  1    3    3    0    0 -3.2203983102e+02 +3.0495652273e+02 +7.3361682228e+02 2.4077794283e+03 2.2500000000e+03 0.0000e+00 0.0000e+00
      -11  1    4    4    0    0 -7.4111132235e-02 -1.6962302396e-02 -4.2935736787e-02 8.7315050555e-02 5.1100000000e-04 0.0000e+00 -1.0000e+00
  1000022  1    4    4    0    0 +3.2209796110e+02 -3.0504941829e+02 -1.7790016648e+01 2.2933858657e+03 2.2500000000e+03 0.0000e+00 0.0000e+00
<mgrwt>
<rscale>  0 0.46465543E+04</rscale>
<asrwt>0</asrwt>
<pdfrwt beam="1">  1        2 0.41670612E+00 0.46465543E+04</pdfrwt>
<pdfrwt beam="2">  1       -2 0.30658114E+00 0.46465543E+04</pdfrwt>
<totfact> 0.56909433E-02</totfact>
</mgrwt>
</event>
<event>
 8      1 +1.2359593e-08 6.09475800e+03 7.81860800e-03 7.67876300e-02
        2 -1    0    0  501    0 +0.0000000000e+00 +0.0000000000e+00 +3.4636591934e+03 3.4636591934e+03 2.5500000000e-03 0.0000e+00 1.0000e+00
       -2 -1    0    0    0  501 -0.0000000000e+00 -0.0000000000e+00 -2.6811293975e+03 2.6811293975e+03 2.5500000000e-03 0.0000e+00 -1.0000e+00
  1000011  2    1    2    0    0 +1.2298519989e+03 -4.2702668713e+02 +1.9945005368e+03 3.2765636575e+03 2.2500998376e+03 8.2441e+02 0.0000e+00
 -1000011  2    1    2    0    0 -1.2298519989e+03 +4.2702668713e+02 -1.2119707409e+03 2.8682249334e+03 2.2501007669e+03 1.4930e+02 0.0000e+00
       11  1    3    3    0    0 -7.2021157241e-03 -7.2187679883e-02 +1.4982479786e-01 1.6646519915e-01 5.1100000000e-04 0.0000e+00 1.0000e+00
  1000022  1    3    3    0    0 +1.2298592011e+03 -4.2695449945e+02 +1.9943507120e+03 3.2763971923e+03 2.2500000000e+03 0.0000e+00 0.0000e+00
      -11  1    4    4    0    0 -1.1607913425e-01 +7.4229212843e-03 -1.5928177765e-01 1.9723187004e-01 5.1100000000e-04 0.0000e+00 -1.0000e+00
  1000022  1    4    4    0    0 -1.2297359198e+03 +4.2701926421e+02 -1.2118114592e+03 2.8680277016e+03 2.2500000000e+03 0.0000e+00 0.0000e+00
<mgrwt>
<rscale>  0 0.60947579E+04</rscale>
<asrwt>0</asrwt>
<pdfrwt beam="1">  1        2 0.53287064E+00 0.60947579E+04</pdfrwt>
<pdfrwt beam="2">  1       -2 0.41248145E+00 0.60947579E+04</pdfrwt>
<totfact> 0.35395575E-03</totfact>
</mgrwt>
</event>
<event>
 8      1 +1.2359593e-08 5.22605900e+03 7.81860800e-03 7.79455100e-02
       -2 -1    0    0    0  501 -0.0000000000e+00 +0.0000000000e+00 +1.9058315694e+03 1.9058315694e+03 2.5500000000e-03 0.0000e+00 -1.0000e+00
        2 -1    0    0  501    0 +0.0000000000e+00 -0.0000000000e+00 -3.5826474440e+03 3.5826474440e+03 2.5500000000e-03 0.0000e+00 1.0000e+00
  1000011  2    1    2    0    0 +1.1660235234e+03 +6.1853170830e+02 -9.9690479352e+02 2.7926625307e+03 2.2501005560e+03 3.2798e+03 0.0000e+00
 -1000011  2    1    2    0    0 -1.1660235234e+03 -6.1853170830e+02 -6.7991108115e+02 2.6958164827e+03 2.2501011308e+03 3.8318e+02 0.0000e+00
       11  1    3    3    0    0 -5.1284657347e-02 +2.4926881636e-02 +1.6299238650e-02 5.9307600940e-02 5.1100000000e-04 0.0000e+00 1.0000e+00
  1000022  1    3    3    0    0 +1.1660748081e+03 +6.1850678142e+02 -9.9692109276e+02 2.7926032231e+03 2.2500000000e+03 0.0000e+00 0.0000e+00
      -11  1    4    4    0    0 -1.3639053783e-02 -5.2134474826e-02 +6.6405049833e-02 8.5521450734e-02 5.1100000000e-04 0.0000e+00 -1.0000e+00
  1000022  1    4    4    0    0 -1.1660098844e+03 -6.1847957383e+02 -6.7997748620e+02 2.6957309612e+03 2.2500000000e+03 0.0000e+00 0.0000e+00
<mgrwt>
<rscale>  0 0.52260588E+04</rscale>
<asrwt>0</asrwt>
<pdfrwt beam="1">  1        2 0.55117653E+00 0.52260588E+04</pdfrwt>
<pdfrwt beam="2">  1       -2 0.29320486E+00 0.52260588E+04</pdfrwt>
<totfact> 0.17727836E-02</totfact>
</mgrwt>
</event>
<event>
 8      1 +1.2359593e-08 5.06877000e+03 7.81860800e-03 7.81798500e-02
        2 -1    0    0  501    0 +0.0000000000e+00 +0.0000000000e+00 +2.4612652578e+03 2.4612652578e+03 2.5500000000e-03 0.0000e+00 1.0000e+00
       -2 -1    0    0    0  501 -0.0000000000e+00 -0.0000000000e+00 -2.6096773680e+03 2.6096773680e+03 2.5500000000e-03 0.0000e+00 -1.0000e+00
  1000011  2    1    2    0    0 +2.2269674030e+01 +4.4702284336e+02 -1.1516134659e+03 2.5670013940e+03 2.2501016024e+03 1.4534e+03 0.0000e+00
 -1000011  2    1    2    0    0 -2.2269674030e+01 -4.4702284336e+02 +1.0032013557e+03 2.5039412317e+03 2.2501074132e+03 7.5760e+02 0.0000e+00
       11  1    3    3    0    0 +3.7742799023e-02 -2.4893160077e-02 +4.5924054869e-02 6.4447406933e-02 5.1100000000e-04 0.0000e+00 1.0000e+00
  1000022  1    3    3    0    0 +2.2231931231e+01 +4.4704773652e+02 -1.1516593899e+03 2.5669369466e+03 2.2500000000e+03 0.0000e+00 0.0000e+00
      -11  1    4    4    0    0 -1.0520364921e-02 -1.8363532187e-02 -6.9055054335e-02 7.2227131660e-02 5.1100000000e-04 0.0000e+00 -1.0000e+00
  1000022  1    4    4    0    0 -2.2259153666e+01 -4.4700447983e+02 +1.0032704107e+03 2.5038690046e+03 2.2500000000e+03 0.0000e+00 0.0000e+00
<mgrwt>
<rscale>  0 0.50687704E+04</rscale>
<asrwt>0</asrwt>
<pdfrwt beam="1">  1        2 0.37865619E+00 0.50687704E+04</pdfrwt>
<pdfrwt beam="2">  1       -2 0.40148883E+00 0.50687704E+04</pdfrwt>
<totfact> 0.19278187E-02</totfact>
</mgrwt>
</event>
<event>
 8      1 +1.2359593e-08 4.89409500e+03 7.81860800e-03 7.84505500e-02
        2 -1    0    0  501    0 +0.0000000000e+00 +0.0000000000e+00 +4.2652647654e+03 4.2652647654e+03 2.5500000000e-03 0.0000e+00 1.0000e+00
       -2 -1    0    0    0  501 -0.0000000000e+00 -0.0000000000e+00 -1.4039082857e+03 1.4039082857e+03 2.5500000000e-03 0.0000e+00 -1.0000e+00
  1000011  2    1    2    0    0 -9.0205402391e+02 +2.4594867522e+02 +1.6920302968e+03 2.9664959982e+03 2.2500977244e+03 1.0881e+03 0.0000e+00
 -1000011  2    1    2    0    0 +9.0205402391e+02 -2.4594867522e+02 +1.1693261829e+03 2.7026770530e+03 2.2500994017e+03 2.8056e+01 0.0000e+00
       11  1    3    3    0    0 +1.7309664380e-02 +5.4967415020e-02 -2.1110370598e-02 6.1375480648e-02 5.1100000000e-04 0.0000e+00 1.0000e+00
  1000022  1    3    3    0    0 -9.0207133358e+02 +2.4589370780e+02 +1.6920514071e+03 2.9664346227e+03 2.2500000000e+03 0.0000e+00 0.0000e+00
      -11  1    4    4    0    0 -4.7992454637e-02 -5.8668036371e-02 +6.6551758552e-02 1.0086927965e-01 5.1100000000e-04 0.0000e+00 -1.0000e+00
  1000022  1    4    4    0    0 +9.0210201637e+02 -2.4589000718e+02 +1.1692596312e+03 2.7025761837e+03 2.2500000000e+03 0.0000e+00 0.0000e+00
<mgrwt>
<rscale>  0 0.48940946E+04</rscale>
<asrwt>0</asrwt>
<pdfrwt beam="1">  1        2 0.65619459E+00 0.48940946E+04</pdfrwt>
<pdfrwt beam="2">  1       -2 0.21598589E+00 0.48940946E+04</pdfrwt>
<totfact> 0.15573362E-02</totfact>
</mgrwt>
</event>
<event>
 8      1 +1.2359593e-08 4.53714400e+03 7.81860800e-03 7.90416600e-02
        2 -1    0    0  501    0 +0.0000000000e+00 +0.0000000000e+00 +3.0061965134e+03 3.0061965134e+03 2.5500000000e-03 0.0000e+00 1.0000e+00
       -2 -1    0    0    0  501 -0.0000000000e+00 -0.0000000000e+00 -1.7119368409e+03 1.7119368409e+03 2.5500000000e-03 0.0000e+00 -1.0000e+00
  1000011  2    1    2    0    0 -2.0292605207e+02 -1.5169437579e+02 +7.9151947936e+02 2.3986761831e+03 2.2501009264e+03 1.0546e+02 0.0000e+00
 -1000011  2    1    2    0    0 +2.0292605207e+02 +1.5169437579e+02 +5.0274019310e+02 2.3194571712e+03 2.2500985981e+03 2.0181e+03 0.0000e+00
       11  1    3    3    0    0 -5.7055291004e-02 -6.2799452222e-02 +1.1182457795e-01 1.4037120268e-01 5.1100000000e-04 0.0000e+00 1.0000e+00
  1000022  1    3    3    0    0 -2.0286899678e+02 -1.5163157634e+02 +7.9140765478e+02 2.3985358119e+03 2.2500000000e+03 0.0000e+00 0.0000e+00
      -11  1    4    4    0    0 +3.5903660861e-02 -8.5028383596e-02 -3.9034379922e-03 9.2381796414e-02 5.1100000000e-04 0.0000e+00 -1.0000e+00
  1000022  1    4    4    0    0 +2.0289014841e+02 +1.5177940417e+02 +5.0274409654e+02 2.3193647894e+03 2.2500000000e+03 0.0000e+00 0.0000e+00
<mgrwt>
<rscale>  0 0.45371438E+04</rscale>
<asrwt>0</asrwt>
<pdfrwt beam="1">  1        2 0.46249177E+00 0.45371438E+04</pdfrwt>
<pdfrwt beam="2">  1       -2 0.26337490E+00 0.45371438E+04</pdfrwt>
<totfact> 0.69318197E-02</totfact>
</mgrwt>
</event>
<event>
 8      1 +1.2359593e-08 4.52234200e+03 7.81860800e-03 7.90673700e-02
       -2 -1    0    0    0  501 -0.0000000000e+00 +0.0000000000e+00 +1.3270756152e+03 1.3270756152e+03 2.5500000000e-03 0.0000e+00 -1.0000e+00
        2 -1    0    0  501    0 +0.0000000000e+00 -0.0000000000e+00 -3.8527522779e+03 3.8527522779e+03 2.5500000000e-03 0.0000e+00 1.0000e+00
  1000011  2    1    2    0    0 -1.7240558456e+02 +9.5717525064e+01 -1.1426227360e+03 2.5313052747e+03 2.2501186962e+03 1.0682e+03 0.0000e+00
 -1000011  2    1    2    0    0 +1.7240558456e+02 -9.5717525064e+01 -1.3830539267e+03 2.6485226184e+03 2.2500996346e+03 2.0256e+03 0.0000e+00
       11  1    3    3    0    0 +1.0763941072e-01 -1.2442523953e-02 -3.7735369055e-02 1.1474004570e-01 5.1100000000e-04 0.0000e+00 1.0000e+00
  1000022  1    3    3    0    0 -1.7251322397e+02 +9.5729967588e+01 -1.1425850006e+03 2.5311905347e+03 2.2500000000e+03 0.0000e+00 0.0000e+00
      -11  1    4    4    0    0 -7.3629788494e-02 +5.4036667000e-02 -5.7502925277e-02 1.0792661664e-01 5.1100000000e-04 0.0000e+00 -1.0000e+00
  1000022  1    4    4    0    0 +1.7247921435e+02 -9.5771561731e+01 -1.3829964238e+03 2.6484146918e+03 2.2500000000e+03 0.0000e+00 0.0000e+00
<mgrwt>
<rscale>  0 0.45223417E+04</rscale>
<asrwt>0</asrwt>
<pdfrwt beam="1">  1        2 0.59273112E+00 0.45223417E+04</pdfrwt>
<pdfrwt beam="2">  1       -2 0.20416548E+00 0.45223417E+04</pdfrwt>
<totfact> 0.42126275E-02</totfact>
</mgrwt>
</event>
<event>
 8      1 +1.2359593e-08 6.63387500e+03 7.81860800e-03 7.61642000e-02
        2 -1    0    0  501    0 +0.0000000000e+00 +0.0000000000e+00 +4.0284264780e+03 4.0284264780e+03 2.5500000000e-03 0.0000e+00 1.0000e+00
       -2 -1    0    0    0  501 -0.0000000000e+00 -0.0000000000e+00 -2.7311094260e+03 2.7311094260e+03 2.5500000000e-03 0.0000e+00 -1.0000e+00
  1000011  2    1    2    0    0 +1.7695828504e+03 -1.3791713152e+03 -3.2098858082e+02 3.1936702866e+03 2.2501020532e+03 3.2811e+02 0.0000e+00
 -1000011  2    1    2    0    0 -1.7695828504e+03 +1.3791713152e+03 +1.6183056328e+03 3.5658656174e+03 2.2500994421e+03 5.2271e+02 0.0000e+00
       11  1    3    3    0    0 -2.1757836600e-02 +3.4919959124e-02 -2.2836941926e-02 4.7059470305e-02 5.1100000000e-04 0.0000e+00 1.0000e+00
  1000022  1    3    3    0    0 +1.7696046082e+03 -1.3792062351e+03 -3.2096574388e+02 3.1936232272e+03 2.2500000000e+03 0.0000e+00 0.0000e+00
      -11  1    4    4    0    0 -1.9044547779e-01 +4.3579207964e-02 +1.0300853211e-01 2.2086114600e-01 5.1100000000e-04 0.0000e+00 -1.0000e+00
  1000022  1    4    4    0    0 -1.7693924049e+03 +1.3791277359e+03 +1.6182026243e+03 3.5656447563e+03 2.2500000000e+03 0.0000e+00 0.0000e+00
<mgrwt>
<rscale>  0 0.66338747E+04</rscale>
<asrwt>0</asrwt>
<pdfrwt beam="1">  1        2 0.61975792E+00 0.66338747E+04</pdfrwt>
<pdfrwt beam="2">  1       -2 0.42017068E+00 0.66338747E+04</pdfrwt>
<totfact> 0.11336312E-03</totfact>
</mgrwt>
</event>
<event>
 8      1 +1.2359593e-08 4.77233500e+03 7.81860800e-03 7.86462000e-02
        2 -1    0    0  501    0 +0.0000000000e+00 +0.0000000000e+00 +2.8930607868e+03 2.8930607868e+03 2.5500000000e-03 0.0000e+00 1.0000e+00
       -2 -1    0    0    0  501 -0.0000000000e+00 -0.0000000000e+00 -1.9680870869e+03 1.9680870869e+03 2.5500000000e-03 0.0000e+00 -1.0000e+00
  1000011  2    1    2    0    0 +1.1770882768e+02 +5.6234983172e+02 +1.0210918089e+03 2.5368675903e+03 2.2501057724e+03 7.9978e+01 0.0000e+00
 -1000011  2    1    2    0    0 -1.1770882768e+02 -5.6234983172e+02 -9.6118109024e+01 2.3242802834e+03 2.2500994297e+03 6.1584e+02 0.0000e+00
       11  1    3    3    0    0 -3.5407407085e-02 -2.0161220748e-02 +1.3684356321e-01 1.4278158471e-01 5.1100000000e-04 0.0000e+00 1.0000e+00
  1000022  1    3    3    0    0 +1.1774423509e+02 +5.6236999294e+02 +1.0209549654e+03 2.5367248087e+03 2.2500000000e+03 0.0000e+00 0.0000e+00
      -11  1    4    4    0    0 +3.7105219250e-02 -1.1004382342e-01 +2.9358314461e-02 1.1978569053e-01 5.1100000000e-04 0.0000e+00 -1.0000e+00
  1000022  1    4    4    0    0 -1.1774593290e+02 -5.6223978790e+02 -9.6147467338e+01 2.3241604977e+03 2.2500000000e+03 0.0000e+00 0.0000e+00
<mgrwt>
<rscale>  0 0.47723351E+04</rscale>
<asrwt>0</asrwt>
<pdfrwt beam="1">  1        2 0.44508627E+00 0.47723351E+04</pdfrwt>
<pdfrwt beam="2">  1       -2 0.30278263E+00 0.47723351E+04</pdfrwt>
<totfact> 0.45948319E-02</totfact>
</mgrwt>
</event>
<event>
 8      1 +1.2359593e-08 5.54694900e+03 7.81860800e-03 7.74926200e-02
       -2 -1    0    0    0  501 -0.0000000000e+00 +0.0000000000e+00 +2.3199539973e+03 2.3199539973e+03 2.5500000000e-03 0.0000e+00 -1.0000e+00
        2 -1    0    0  501    0 +0.0000000000e+00 -0.0000000000e+00 -3.3156524025e+03 3.3156524025e+03 2.5500000000e-03 0.0000e+00 1.0000e+00
  1000011  2    1    2    0    0 +1.8915674023e+02 -8.4751511419e+02 -1.8890971268e+03 3.0636089621e+03 2.2500999482e+03 9.4964e+01 0.0000e+00
 -1000011  2    1    2    0    0 -1.8915674023e+02 +8.4751511419e+02 +8.9339872165e+02 2.5719974376e+03 2.2500994205e+03 1.2055e+03 0.0000e+00
       11  1    3    3    0    0 -7.9932137398e-02 -1.4159865230e-02 -1.2687470286e-01 1.5062237360e-01 5.1100000000e-04 0.0000e+00 1.0000e+00
  1000022  1    3    3    0    0 +1.8923667237e+02 -8.4750095432e+02 -1.8889702521e+03 3.0634583397e+03 2.2500000000e+03 0.0000e+00 0.0000e+00
      -11  1    4    4    0    0 -2.8768447077e-02 +1.1865130357e-01 -1.4936901618e-02 1.2300051718e-01 5.1100000000e-04 0.0000e+00 -1.0000e+00
  1000022  1    4    4    0    0 -1.8912797179e+02 +8.4739646289e+02 +8.9341365855e+02 2.5718744371e+03 2.2500000000e+03 0.0000e+00 0.0000e+00
<mgrwt>
<rscale>  0 0.55469491E+04</rscale>
<asrwt>0</asrwt>
<pdfrwt beam="1">  1        2 0.51010037E+00 0.55469491E+04</pdfrwt>
<pdfrwt beam="2">  1       -2 0.35691600E+00 0.55469491E+04</pdfrwt>
<totfact> 0.10652724E-02</totfact>
</mgrwt>
</event>
<event>
 8      1 +1.2359593e-08 4.66998900e+03 7.81860800e-03 7.88153400e-02
       -2 -1    0    0    0  501 -0.0000000000e+00 +0.0000000000e+00 +1.5056784026e+03 1.5056784026e+03 2.5500000000e-03 0.0000e+00 -1.0000e+00
        2 -1    0    0  501    0 +0.0000000000e+00 -0.0000000000e+00 -3.6210914462e+03 3.6210914462e+03 2.5500000000e-03 0.0000e+00 1.0000e+00
  1000011  2    1    2    0    0 +7.5904479062e+01 -5.5688367760e+02 -1.3550575320e+03 2.6860778148e+03 2.2501004848e+03 3.5918e+02 0.0000e+00
 -1000011  2    1    2    0    0 -7.5904479062e+01 +5.5688367760e+02 -7.6035551157e+02 2.4406920341e+03 2.2501013713e+03 7.6871e+02 0.0000e+00
       11  1    3    3    0    0 -8.6365876264e-02 -5.3119205977e-02 -2.1695504726e-02 1.0369026126e-01 5.1100000000e-04 0.0000e+00 1.0000e+00
  1000022  1    3    3    0    0 +7.5990844938e+01 -5.5683055840e+02 -1.3550358365e+03 2.6859741245e+03 2.2500000000e+03 0.0000e+00 0.0000e+00
      -11  1    4    4    0    0 +6.0193336420e-02 +2.6379603101e-02 +4.9392092374e-02 8.2212899366e-02 5.1100000000e-04 0.0000e+00 -1.0000e+00
  1000022  1    4    4    0    0 -7.5964672399e+01 +5.5685729800e+02 -7.6040490366e+02 2.4406098212e+03 2.2500000000e+03 0.0000e+00 0.0000e+00
<mgrwt>
<rscale>  0 0.46699889E+04</rscale>
<asrwt>0</asrwt>
<pdfrwt beam="1">  1        2 0.55709099E+00 0.46699889E+04</pdfrwt>
<pdfrwt beam="2">  1       -2 0.23164283E+00 0.46699889E+04</pdfrwt>
<totfact> 0.41500711E-02</totfact>
</mgrwt>
</event>
<event>
 8      1 +1.2359593e-08 4.63587900e+03 7.81860800e-03 7.88727100e-02
       -2 -1    0    0    0  501 -0.0000000000e+00 +0.0000000000e+00 +1.6312502393e+03 1.6312502393e+03 2.5500000000e-03 0.0000e+00 -1.0000e+00
        2 -1    0    0  501    0 +0.0000000000e+00 -0.0000000000e+00 -3.2936966797e+03 3.2936966797e+03 2.5500000000e-03 0.0000e+00 1.0000e+00
  1000011  2    1    2    0    0 -1.3197999813e+02 -5.3791994244e+02 -7.7198220500e+02 2.4424760105e+03 2.2501013206e+03 3.1592e+02 0.0000e+00
 -1000011  2    1    2    0    0 +1.3197999813e+02 +5.3791994244e+02 -8.9046423535e+02 2.4824709084e+03 2.2501019249e+03 4.9677e+02 0.0000e+00
       11  1    3    3    0    0 +8.0152905954e-02 +3.2095593291e-02 -3.0930253474e-02 9.1714541171e-02 5.1100000000e-04 0.0000e+00 1.0000e+00
  1000022  1    3    3    0    0 -1.3206015104e+02 -5.3795203804e+02 -7.7195127475e+02 2.4423842960e+03 2.2500000000e+03 0.0000e+00 0.0000e+00
      -11  1    4    4    0    0 +4.9237338227e-02 +4.3205787173e-02 +5.4096765250e-02 8.4957498277e-02 5.1100000000e-04 0.0000e+00 -1.0000e+00
  1000022  1    4    4    0    0 +1.3193076079e+02 +5.3787673666e+02 -8.9051833212e+02 2.4823859509e+03 2.2500000000e+03 0.0000e+00 0.0000e+00
<mgrwt>
<rscale>  0 0.46358790E+04</rscale>
<asrwt>0</asrwt>
<pdfrwt beam="1">  1        2 0.50672257E+00 0.46358790E+04</pdfrwt>
<pdfrwt beam="2">  1       -2 0.25096158E+00 0.46358790E+04</pdfrwt>
<totfact> 0.53366681E-02</totfact>
</mgrwt>
</event>
<event>
 8      1 +1.2359593e-08 5.82949700e+03 7.81860800e-03 7.71190900e-02
        2 -1    0    0  501    0 +0.0000000000e+00 +0.0000000000e+00 +4.0531542287e+03 4.0531542287e+03 2.5500000000e-03 0.0000e+00 1.0000e+00
       -2 -1    0    0    0  501 -0.0000000000e+00 -0.0000000000e+00 -2.0960854245e+03 2.0960854246e+03 2.5500000000e-03 0.0000e+00 -1.0000e+00
  1000011  2    1    2    0    0 +2.0853188310e+01 -4.2612612256e+02 -9.2335609248e+02 2.4693183165e+03 2.2500951417e+03 4.2491e+01 0.0000e+00
 -1000011  2    1    2    0    0 -2.0853188310e+01 +4.2612612256e+02 +2.8804248966e+03 3.6799213368e+03 2.2501011381e+03 1.6035e+03 0.0000e+00
       11  1    3    3    0    0 -4.9401686411e-02 +3.0172951079e-04 +4.7431308436e-02 6.8488011119e-02 5.1100000000e-04 0.0000e+00 1.0000e+00
  1000022  1    3    3    0    0 +2.0902589996e+01 -4.2612642429e+02 -9.2340352378e+02 2.4692498285e+03 2.2500000000e+03 0.0000e+00 0.0000e+00
      -11  1    4    4    0    0 +9.0522527337e-02 +6.1958596113e-02 +1.5297522712e-01 1.8824153820e-01 5.1100000000e-04 0.0000e+00 -1.0000e+00
  1000022  1    4    4    0    0 -2.0943710837e+01 +4.2606416396e+02 +2.8802719214e+03 3.6797330952e+03 2.2500000000e+03 0.0000e+00 0.0000e+00
<mgrwt>
<rscale>  0 0.58294965E+04</rscale>
<asrwt>0</asrwt>
<pdfrwt beam="1">  1        2 0.62356218E+00 0.58294965E+04</pdfrwt>
<pdfrwt beam="2">  1       -2 0.32247468E+00 0.58294965E+04</pdfrwt>
<totfact> 0.48516064E-03</totfact>
</mgrwt>
</event>
<event>
 8      1 +1.2359593e-08 5.72440100e+03 7.81860800e-03 7.72554400e-02
        2 -1    0    0  501    0 +0.0000000000e+00 +0.0000000000e+00 +3.2279401625e+03 3.2279401625e+03 2.5500000000e-03 0.0000e+00 1.0000e+00
       -2 -1    0    0    0  501 -0.0000000000e+00 -0.0000000000e+00 -2.5379006015e+03 2.5379006015e+03 2.5500000000e-03 0.0000e+00 -1.0000e+00
  1000011  2    1    2    0    0 -2.2223797826e+01 +1.3209224569e+03 +1.5299355041e+03 3.0247270614e+03 2.2500980234e+03 1.0303e+03 0.0000e+00
 -1000011  2    1    2    0    0 +2.2223797826e+01 -1.3209224569e+03 -8.3989594306e+02 2.7411137027e+03 2.2500997981e+03 1.1004e+01 0.0000e+00
       11  1    3    3    0    0 +7.5350236195e-03 +2.0927792666e-02 +1.6287133797e-01 1.6438394860e-01 5.1100000000e-04 0.0000e+00 1.0000e+00
  1000022  1    3    3    0    0 -2.2231332850e+01 +1.3209015291e+03 +1.5297726327e+03 3.0245626774e+03 2.2500000000e+03 0.0000e+00 0.0000e+00
      -11  1    4    4    0    0 +4.5890323144e-02 -9.2254110793e-02 -1.3145838179e-01 1.6702787159e-01 5.1100000000e-04 0.0000e+00 -1.0000e+00
  1000022  1    4    4    0    0 +2.2177907503e+01 -1.3208302028e+03 -8.3976448468e+02 2.7409466748e+03 2.2500000000e+03 0.0000e+00 0.0000e+00
<mgrwt>
<rscale>  0 0.57244009E+04</rscale>
<asrwt>0</asrwt>
<pdfrwt beam="1">  1        2 0.49660618E+00 0.57244009E+04</pdfrwt>
<pdfrwt beam="2">  1       -2 0.39044625E+00 0.57244009E+04</pdfrwt>
<totfact> 0.73223700E-03</totfact>
</mgrwt>
</event>
<event>
 8      1 +1.2359593e-08 4.58396700e+03 7.81860800e-03 7.89609900e-02
       -2 -1    0    0    0  501 -0.0000000000e+00 +0.0000000000e+00 +2.4074961098e+03 2.4074961098e+03 2.5500000000e-03 0.0000e+00 -1.0000e+00
        2 -1    0    0  501    0 +0.0000000000e+00 -0.0000000000e+00 -2.1820135786e+03 2.1820135786e+03 2.5500000000e-03 0.0000e+00 1.0000e+00
  1000011  2    1    2    0    0 +3.8661744009e+02 +1.5969111775e+02 +2.3644883682e+02 2.3008319223e+03 2.2500989276e+03 2.3844e+03 0.0000e+00
 -1000011  2    1    2    0    0 -3.8661744009e+02 -1.5969111775e+02 -1.0966305580e+01 2.2886777660e+03 2.2501002997e+03 5.3509e+02 0.0000e+00
       11  1    3    3    0    0 -6.3565044598e-02 +5.5388386202e-02 -2.3407773508e-02 8.7501843869e-02 5.1100000000e-04 0.0000e+00 1.0000e+00
  1000022  1    3    3    0    0 +3.8668100513e+02 +1.5963572937e+02 +2.3647224459e+02 2.3007444205e+03 2.2500000000e+03 0.0000e+00 0.0000e+00
      -11  1    4    4    0    0 +1.3642052299e-02 +8.8751095711e-02 -7.9717205620e-03 9.0148052479e-02 5.1100000000e-04 0.0000e+00 -1.0000e+00
  1000022  1    4    4    0    0 -3.8663108214e+02 -1.5977986885e+02 -1.0958333860e+01 2.2885876180e+03 2.2500000000e+03 0.0000e+00 0.0000e+00
<mgrwt>
<rscale>  0 0.45839674E+04</rscale>
<asrwt>0</asrwt>
<pdfrwt beam="1">  1        2 0.33569440E+00 0.45839674E+04</pdfrwt>
<pdfrwt beam="2">  1       -2 0.37038401E+00 0.45839674E+04</pdfrwt>
<totfact> 0.45923375E-02</totfact>
</mgrwt>
</event>
<event>
 8      1 +1.2359593e-08 4.58722300e+03 7.81860800e-03 7.89554200e-02
       -2 -1    0    0    0  501 -0.0000000000e+00 +0.0000000000e+00 +1.4677198777e+03 1.4677198777e+03 2.5500000000e-03 0.0000e+00 -1.0000e+00
        2 -1    0    0  501    0 +0.0000000000e+00 -0.0000000000e+00 -3.5842348361e+03 3.5842348361e+03 2.5500000000e-03 0.0000e+00 1.0000e+00
  1000011  2    1    2    0    0 +7.8491193236e+01 +3.6852834493e+02 -1.3182422708e+03 2.6348961493e+03 2.2500980034e+03 8.7839e+01 0.0000e+00
 -1000011  2    1    2    0    0 -7.8491193236e+01 -3.6852834493e+02 -7.9827268769e+02 2.4170585645e+03 2.2501019559e+03 1.7958e+02 0.0000e+00
       11  1    3    3    0    0 +4.1502272019e-02 +7.5432612905e-02 -1.4328185753e-01 1.6716001027e-01 5.1100000000e-04 0.0000e+00 1.0000e+00
  1000022  1    3    3    0    0 +7.8449690964e+01 +3.6845291232e+02 -1.3180989889e+03 2.6347289893e+03 2.2500000000e+03 0.0000e+00 0.0000e+00
      -11  1    4    4    0    0 -6.9741284076e-02 +2.5145301276e-02 +3.4733571740e-02 8.1870720181e-02 5.1100000000e-04 0.0000e+00 -1.0000e+00
  1000022  1    4    4    0    0 -7.8421451952e+01 -3.6855349024e+02 -7.9830742126e+02 2.4169766938e+03 2.2500000000e+03 0.0000e+00 0.0000e+00
<mgrwt>
<rscale>  0 0.45872226E+04</rscale>
<asrwt>0</asrwt>
<pdfrwt beam="1">  1        2 0.55142074E+00 0.45872226E+04</pdfrwt>
<pdfrwt beam="2">  1       -2 0.22580306E+00 0.45872226E+04</pdfrwt>
<totfact> 0.48324176E-02</totfact>
</mgrwt>
</event>
<event>
 8      1 +1.2359593e-08 4.70269000e+03 7.81860800e-03 7.87608200e-02
        2 -1    0    0  501    0 +0.0000000000e+00 +0.0000000000e+00 +3.2134811890e+03 3.2134811890e+03 2.5500000000e-03 0.0000e+00 1.0000e+00
       -2 -1    0    0    0  501 -0.0000000000e+00 -0.0000000000e+00 -1.7205089139e+03 1.7205089139e+03 2.5500000000e-03 0.0000e+00 -1.0000e+00
  1000011  2    1    2    0    0 -9.1657649571e+01 -5.4098704997e+02 +1.1724180911e+03 2.5958780849e+03 2.2501001618e+03 3.7773e+02 0.0000e+00
 -1000011  2    1    2    0    0 +9.1657649571e+01 +5.4098704997e+02 +3.2055418393e+02 2.3381120180e+03 2.2500988225e+03 2.2136e+02 0.0000e+00
       11  1    3    3    0    0 +4.2295315763e-03 +7.8218931351e-02 +5.0206877809e-02 9.3043439498e-02 5.1100000000e-04 0.0000e+00 1.0000e+00
  1000022  1    3    3    0    0 -9.1661879103e+01 -5.4106526890e+02 +1.1723678842e+03 2.5957850414e+03 2.2500000000e+03 0.0000e+00 0.0000e+00
      -11  1    4    4    0    0 -7.7221696843e-02 -3.4629531596e-02 +1.8043224179e-02 8.6534465387e-02 5.1100000000e-04 0.0000e+00 -1.0000e+00
  1000022  1    4    4    0    0 +9.1734871268e+01 +5.4102167950e+02 +3.2053614071e+02 2.3380254836e+03 2.2500000000e+03 0.0000e+00 0.0000e+00
<mgrwt>
<rscale>  0 0.47026899E+04</rscale>
<asrwt>0</asrwt>
<pdfrwt beam="1">  1        2 0.49438171E+00 0.47026899E+04</pdfrwt>
<pdfrwt beam="2">  1       -2 0.26469369E+00 0.47026899E+04</pdfrwt>
<totfact> 0.49417238E-02</totfact>
</mgrwt>
</event>
<event>
 8      1 +1.2359593e-08 4.66170100e+03 7.81860800e-03 7.88292300e-02
       -1 -1    0    0    0  501 -0.0000000000e+00 +0.0000000000e+00 +1.8726645986e+03 1.8726645987e+03 5.0400000000e-03 0.0000e+00 -1.0000e+00
        1 -1    0    0  501    0 +0.0000000000e+00 -0.0000000000e+00 -2.9011410358e+03 2.9011410358e+03 5.0400000000e-03 0.0000e+00 1.0000e+00
  1000011  2    1    2    0    0 +1.3273443607e+01 -5.6080092505e+02 -7.5492389007e+02 2.4387564383e+03 2.2500997808e+03 1.4493e+01 0.0000e+00
 -1000011  2    1    2    0    0 -1.3273443607e+01 +5.6080092505e+02 -2.7355254712e+02 2.3350491962e+03 2.2500999735e+03 6.1209e+02 0.0000e+00
       11  1    3    3    0    0 -1.5631042896e-02 -1.2387309183e-02 -1.3521595743e-01 1.3667988490e-01 5.1100000000e-04 0.0000e+00 1.0000e+00
  1000022  1    3    3    0    0 +1.3289074650e+01 -5.6078853774e+02 -7.5478867411e+02 2.4386197584e+03 2.2500000000e+03 0.0000e+00 0.0000e+00
      -11  1    4    4    0    0 -7.4807326315e-02 +2.6368302339e-03 +5.2227068991e-02 9.1274402623e-02 5.1100000000e-04 0.0000e+00 -1.0000e+00
  1000022  1    4    4    0    0 -1.3198636281e+01 +5.6079828822e+02 -2.7360477418e+02 2.3349579218e+03 2.2500000000e+03 0.0000e+00 0.0000e+00
<mgrwt>
<rscale>  0 0.46617010E+04</rscale>
<asrwt>0</asrwt>
<pdfrwt beam="1">  1        1 0.44632939E+00 0.46617010E+04</pdfrwt>
<pdfrwt beam="2">  1       -1 0.28810225E+00 0.46617010E+04</pdfrwt>
<totfact> 0.20624939E-02</totfact>
</mgrwt>
</event>
<event>
 8      1 +1.2359593e-08 5.91073300e+03 7.81860800e-03 7.70156900e-02
        2 -1    0    0  501    0 +0.0000000000e+00 +0.0000000000e+00 +3.9980732458e+03 3.9980732458e+03 2.5500000000e-03 0.0000e+00 1.0000e+00
       -2 -1    0    0    0  501 -0.0000000000e+00 -0.0000000000e+00 -2.1846001409e+03 2.1846001409e+03 2.5500000000e-03 0.0000e+00 -1.0000e+00
  1000011  2    1    2    0    0 -9.3097119027e+02 -5.6339467830e+01 +2.6574665879e+03 3.6048540163e+03 2.2501027356e+03 1.7583e+03 0.0000e+00
 -1000011  2    1    2    0    0 +9.3097119027e+02 +5.6339467830e+01 -8.4399348296e+02 2.5778193703e+03 2.2500991565e+03 7.7659e+02 0.0000e+00
       11  1    3    3    0    0 -7.0501875640e-02 -2.9438026043e-02 +2.7545824772e-01 2.8585769036e-01 5.1100000000e-04 0.0000e+00 1.0000e+00
  1000022  1    3    3    0    0 -9.3090068840e+02 -5.6310029804e+01 +2.6571911296e+03 3.6045681587e+03 2.2500000000e+03 0.0000e+00 0.0000e+00
      -11  1    4    4    0    0 +1.3501754793e-01 +1.0259386033e-02 -9.9789346230e-02 1.6820573061e-01 5.1100000000e-04 0.0000e+00 -1.0000e+00
  1000022  1    4    4    0    0 +9.3083617272e+02 +5.6329208444e+01 -8.4389369361e+02 2.5776511646e+03 2.2500000000e+03 0.0000e+00 0.0000e+00
<mgrwt>
<rscale>  0 0.59107331E+04</rscale>
<asrwt>0</asrwt>
<pdfrwt beam="1">  1        2 0.61508819E+00 0.59107331E+04</pdfrwt>
<pdfrwt beam="2">  1       -2 0.33609233E+00 0.59107331E+04</pdfrwt>
<totfact> 0.44029283E-03</totfact>
</mgrwt>
</event>
<event>
 8      1 +1.2359593e-08 5.34659000e+03 7.81860800e-03 7.77715800e-02
       -2 -1    0    0    0  501 -0.0000000000e+00 +0.0000000000e+00 +2.0046483916e+03 2.0046483916e+03 2.5500000000e-03 0.0000e+00 -1.0000e+00
        2 -1    0    0  501    0 +0.0000000000e+00 -0.0000000000e+00 -3.5649672552e+03 3.5649672552e+03 2.5500000000e-03 0.0000e+00 1.0000e+00
  1000011  2    1    2    0    0 -1.2894700528e+03 +4.7955502276e+02 -1.2352453716e+03 2.9122994122e+03 2.2501001537e+03 1.4684e+03 0.0000e+00
 -1000011  2    1    2    0    0 +1.2894700528e+03 -4.7955502276e+02 -3.2507349191e+02 2.6573162345e+03 2.2501001663e+03 1.8310e+03 0.0000e+00
       11  1    3    3    0    0 +5.0135472599e-02 +3.0701261013e-02 -6.5508560787e-02 8.8021390683e-02 5.1100000000e-04 0.0000e+00 1.0000e+00
  1000022  1    3    3    0    0 -1.2895201883e+03 +4.7952432150e+02 -1.2351798631e+03 2.9122113909e+03 2.2500000000e+03 0.0000e+00 0.0000e+00
      -11  1    4    4    0    0 +1.1856234592e-01 -1.0940123004e-01 +5.4897359261e-03 1.6141888645e-01 5.1100000000e-04 0.0000e+00 -1.0000e+00
  1000022  1    4    4    0    0 +1.2893514905e+03 -4.7944562153e+02 -3.2507898165e+02 2.6571548156e+03 2.2500000000e+03 0.0000e+00 0.0000e+00
<mgrwt>
<rscale>  0 0.53465899E+04</rscale>
<asrwt>0</asrwt>
<pdfrwt beam="1">  1        2 0.54845650E+00 0.53465899E+04</pdfrwt>
<pdfrwt beam="2">  1       -2 0.30840744E+00 0.53465899E+04</pdfrwt>
<totfact> 0.14588821E-02</totfact>
</mgrwt>
</event>
<event>
 8      1 +1.2359593e-08 4.78357400e+03 7.81860800e-03 7.86278900e-02
        2 -1    0    0  501    0 +0.0000000000e+00 +0.0000000000e+00 +3.3561043919e+03 3.3561043919e+03 2.5500000000e-03 0.0000e+00 1.0000e+00
       -2 -1    0    0    0  501 -0.0000000000e+00 -0.0000000000e+00 -1.7045493482e+03 1.7045493482e+03 2.5500000000e-03 0.0000e+00 -1.0000e+00
  1000011  2    1    2    0    0 -6.4526313127e+02 -4.8764031708e+02 +7.6288718532e+02 2.5098020615e+03 2.2501004296e+03 2.9149e+02 0.0000e+00
 -1000011  2    1    2    0    0 +6.4526313127e+02 +4.8764031708e+02 +8.8866785839e+02 2.5508516786e+03 2.2501013613e+03 1.9834e+03 0.0000e+00
       11  1    3    3    0    0 +2.4819675616e-02 -7.5614311788e-02 -3.6076179555e-02 8.7380156729e-02 5.1100000000e-04 0.0000e+00 1.0000e+00
  1000022  1    3    3    0    0 -6.4528795094e+02 -4.8756470277e+02 +7.6292326150e+02 2.5097146814e+03 2.2500000000e+03 0.0000e+00 0.0000e+00
      -11  1    4    4    0    0 -2.3045157251e-02 -2.5450288377e-02 +1.1296544405e-01 1.1806882951e-01 5.1100000000e-04 0.0000e+00 -1.0000e+00
  1000022  1    4    4    0    0 +6.4528617642e+02 +4.8766576737e+02 +8.8855489295e+02 2.5507336098e+03 2.2500000000e+03 0.0000e+00 0.0000e+00
<mgrwt>
<rscale>  0 0.47835742E+04</rscale>
<asrwt>0</asrwt>
<pdfrwt beam="1">  1        2 0.51632375E+00 0.47835742E+04</pdfrwt>
<pdfrwt beam="2">  1       -2 0.26223836E+00 0.47835742E+04</pdfrwt>
<totfact> 0.40830476E-02</totfact>
</mgrwt>
</event>
<event>
 8      1 +1.2359593e-08 5.12720100e+03 7.81860800e-03 7.80917900e-02
        2 -1    0    0  501    0 +0.0000000000e+00 +0.0000000000e+00 +2.2514254327e+03 2.2514254327e+03 2.5500000000e-03 0.0000e+00 1.0000e+00
       -2 -1    0    0    0  501 -0.0000000000e+00 -0.0000000000e+00 -2.9190608591e+03 2.9190608591e+03 2.5500000000e-03 0.0000e+00 -1.0000e+00
  1000011  2    1    2    0    0 +2.3436318066e+02 +1.0550309749e+03 -9.2277021983e+02 2.6612917355e+03 2.2501005232e+03 1.1755e+02 0.0000e+00
 -1000011  2    1    2    0    0 -2.3436318066e+02 -1.0550309749e+03 +2.5513479351e+02 2.5091945563e+03 2.2500993533e+03 3.2637e+02 0.0000e+00
       11  1    3    3    0    0 +1.0424163044e-01 +9.2709294925e-02 -4.6644133668e-02 1.4709611432e-01 5.1100000000e-04 0.0000e+00 1.0000e+00
  1000022  1    3    3    0    0 +2.3425893903e+02 +1.0549382656e+03 -9.2272357570e+02 2.6611446394e+03 2.2500000000e+03 0.0000e+00 0.0000e+00
      -11  1    4    4    0    0 -6.8310427937e-02 -1.1821830755e-01 -3.6880085134e-02 1.4142943183e-01 5.1100000000e-04 0.0000e+00 -1.0000e+00
  1000022  1    4    4    0    0 -2.3429487023e+02 -1.0549127566e+03 +2.5517167360e+02 2.5090531268e+03 2.2500000000e+03 0.0000e+00 0.0000e+00
<mgrwt>
<rscale>  0 0.51272011E+04</rscale>
<asrwt>0</asrwt>
<pdfrwt beam="1">  1        2 0.34637314E+00 0.51272011E+04</pdfrwt>
<pdfrwt beam="2">  1       -2 0.44908629E+00 0.51272011E+04</pdfrwt>
<totfact> 0.12289406E-02</totfact>
</mgrwt>
</event>
<event>
 8      1 +1.2359593e-08 4.61309800e+03 7.81860800e-03 7.89113100e-02
        2 -1    0    0  501    0 +0.0000000000e+00 +0.0000000000e+00 +2.2513619957e+03 2.2513619957e+03 2.5500000000e-03 0.0000e+00 1.0000e+00
       -2 -1    0    0    0  501 -0.0000000000e+00 -0.0000000000e+00 -2.3630882939e+03 2.3630882939e+03 2.5500000000e-03 0.0000e+00 -1.0000e+00
  1000011  2    1    2    0    0 +3.9845095174e+02 -3.0082737370e+02 -1.4511834403e+02 2.3093874414e+03 2.2501001646e+03 1.4029e+03 0.0000e+00
 -1000011  2    1    2    0    0 -3.9845095174e+02 +3.0082737370e+02 +3.3392045830e+01 2.3050628483e+03 2.2500976504e+03 5.0616e+02 0.0000e+00
       11  1    3    3    0    0 +4.0895007734e-02 +1.9779506814e-03 +8.9853175410e-02 9.8742938017e-02 5.1100000000e-04 0.0000e+00 1.0000e+00
  1000022  1    3    3    0    0 +3.9841005673e+02 -3.0082935165e+02 -1.4520819721e+02 2.3092886984e+03 2.2500000000e+03 0.0000e+00 0.0000e+00
      -11  1    4    4    0    0 -1.4037576994e-02 +2.3358595090e-02 -9.5600129001e-02 9.9409873046e-02 5.1100000000e-04 0.0000e+00 -1.0000e+00
  1000022  1    4    4    0    0 -3.9843691416e+02 +3.0080401510e+02 +3.3487645959e+01 2.3049634384e+03 2.2500000000e+03 0.0000e+00 0.0000e+00
<mgrwt>
<rscale>  0 0.46130975E+04</rscale>
<asrwt>0</asrwt>
<pdfrwt beam="1">  1        2 0.34636338E+00 0.46130975E+04</pdfrwt>
<pdfrwt beam="2">  1       -2 0.36355205E+00 0.46130975E+04</pdfrwt>
<totfact> 0.46300154E-02</totfact>
</mgrwt>
</event>
<event>
 8      1 +1.2359593e-08 5.52595800e+03 7.81860800e-03 7.75212700e-02
       -2 -1    0    0    0  501 -0.0000000000e+00 +0.0000000000e+00 +2.7569321374e+03 2.7569321374e+03 2.5500000000e-03 0.0000e+00 -1.0000e+00
        2 -1    0    0  501    0 +0.0000000000e+00 -0.0000000000e+00 -2.7690388256e+03 2.7690388256e+03 2.5500000000e-03 0.0000e+00 1.0000e+00
  1000011  2    1    2    0    0 +5.9821292872e+02 +1.3960183455e+03 -5.2020912600e+02 2.7641086288e+03 2.2501006750e+03 1.5047e+03 0.0000e+00
 -1000011  2    1    2    0    0 -5.9821292872e+02 -1.3960183455e+03 +5.0810243783e+02 2.7618623342e+03 2.2501087833e+03 1.7421e+00 0.0000e+00
       11  1    3    3    0    0 +3.7444146302e-02 -2.4548622701e-03 -1.0110333141e-01 1.0784356611e-01 5.1100000000e-04 0.0000e+00 1.0000e+00
  1000022  1    3    3    0    0 +5.9817548457e+02 +1.3960208004e+03 -5.2010802267e+02 2.7640007852e+03 2.2500000000e+03 0.0000e+00 0.0000e+00
      -11  1    4    4    0    0 +7.0383320789e-02 +1.3962856953e-03 -9.1475226202e-03 7.0990840667e-02 5.1100000000e-04 0.0000e+00 -1.0000e+00
  1000022  1    4    4    0    0 -5.9828331204e+02 -1.3960197418e+03 +5.0811158535e+02 2.7617913433e+03 2.2500000000e+03 0.0000e+00 0.0000e+00
<mgrwt>
<rscale>  0 0.55259577E+04</rscale>
<asrwt>0</asrwt>
<pdfrwt beam="1">  1        2 0.42600597E+00 0.55259577E+04</pdfrwt>
<pdfrwt beam="2">  1       -2 0.42414341E+00 0.55259577E+04</pdfrwt>
<totfact> 0.86968992E-03</totfact>
</mgrwt>
</event>
<event>
 8      1 +1.2359593e-08 4.58856500e+03 7.81860800e-03 7.89531300e-02
       -2 -1    0    0    0  501 -0.0000000000e+00 +0.0000000000e+00 +1.7568543169e+03 1.7568543169e+03 2.5500000000e-03 0.0000e+00 -1.0000e+00
        2 -1    0    0  501    0 +0.0000000000e+00 -0.0000000000e+00 -2.9961113380e+03 2.9961113380e+03 2.5500000000e-03 0.0000e+00 1.0000e+00
  1000011  2    1    2    0    0 +2.3736179388e+02 -3.7059578088e+02 -7.0673938862e+02 2.3991915959e+03 2.2501017525e+03 6.5367e+02 0.0000e+00
 -1000011  2    1    2    0    0 -2.3736179388e+02 +3.7059578088e+02 -5.3251763250e+02 2.3537740589e+03 2.2501100945e+03 7.4098e+02 0.0000e+00
       11  1    3    3    0    0 +9.3697994930e-02 +2.5085752301e-02 +1.0903838329e-02 9.7610264764e-02 5.1100000000e-04 0.0000e+00 1.0000e+00
  1000022  1    3    3    0    0 +2.3726809588e+02 -3.7062086663e+02 -7.0675029246e+02 2.3990939857e+03 2.2500000000e+03 0.0000e+00 0.0000e+00
      -11  1    4    4    0    0 -8.2563362866e-03 -9.1274799444e-02 +2.4582622925e-04 9.1649209284e-02 5.1100000000e-04 0.0000e+00 -1.0000e+00
  1000022  1    4    4    0    0 -2.3735353754e+02 +3.7068705568e+02 -5.3251787833e+02 2.3536824097e+03 2.2500000000e+03 0.0000e+00 0.0000e+00
<mgrwt>
<rscale>  0 0.45885645E+04</rscale>
<asrwt>0</asrwt>
<pdfrwt beam="1">  1        2 0.46094020E+00 0.45885645E+04</pdfrwt>
<pdfrwt beam="2">  1       -2 0.27028528E+00 0.45885645E+04</pdfrwt>
<totfact> 0.63555115E-02</totfact>
</mgrwt>
</event>
<event>
 8      1 +1.2359593e-08 4.89354200e+03 7.81860800e-03 7.84514200e-02
        1 -1    0    0  501    0 +0.0000000000e+00 +0.0000000000e+00 +2.4357559694e+03 2.4357559694e+03 5.0400000000e-03 0.0000e+00 1.0000e+00
       -1 -1    0    0    0  501 -0.0000000000e+00 -0.0000000000e+00 -2.4578359602e+03 2.4578359602e+03 5.0400000000e-03 0.0000e+00 -1.0000e+00
  1000011  2    1    2    0    0 -3.8311657280e+02 -2.0947129482e+02 +8.4517292155e+02 2.4429337055e+03 2.2501002845e+03 1.4444e+01 0.0000e+00
 -1000011  2    1    2    0    0 +3.8311657280e+02 +2.0947129482e+02 -8.6725291233e+02 2.4506582241e+03 2.2500981281e+03 1.6756e+03 0.0000e+00
       11  1    3    3    0    0 -2.3969930459e-02 +1.7098856316e-03 +1.4369680629e-01 1.4569321858e-01 5.1100000000e-04 0.0000e+00 1.0000e+00
  1000022  1    3    3    0    0 -3.8309260287e+02 -2.0947300471e+02 +8.4502922475e+02 2.4427880122e+03 2.2500000000e+03 0.0000e+00 0.0000e+00
      -11  1    4    4    0    0 -4.5514332799e-02 +8.3567447721e-03 -1.1574687396e-01 1.2465548074e-01 5.1100000000e-04 0.0000e+00 -1.0000e+00
  1000022  1    4    4    0    0 +3.8316208713e+02 +2.0946293808e+02 -8.6713716546e+02 2.4505335687e+03 2.2500000000e+03 0.0000e+00 0.0000e+00
<mgrwt>
<rscale>  0 0.48935421E+04</rscale>
<asrwt>0</asrwt>
<pdfrwt beam="1">  1        1 0.37473169E+00 0.48935421E+04</pdfrwt>
<pdfrwt beam="2">  1       -1 0.37812861E+00 0.48935421E+04</pdfrwt>
<totfact> 0.11009481E-02</totfact>
</mgrwt>
</event>
<event>
 8      1 +1.2359593e-08 4.68946200e+03 7.81860800e-03 7.87828200e-02
       -2 -1    0    0    0  501 -0.0000000000e+00 +0.0000000000e+00 +1.9063939837e+03 1.9063939837e+03 2.5500000000e-03 0.0000e+00 -1.0000e+00
        2 -1    0    0  501    0 +0.0000000000e+00 -0.0000000000e+00 -2.8838549039e+03 2.8838549039e+03 2.5500000000e-03 0.0000e+00 1.0000e+00
  1000011  2    1    2    0    0 +3.8581738876e+02 -4.9155025266e+02 -7.0372554231e+02 2.4390027975e+03 2.2501173967e+03 2.0987e+02 0.0000e+00
 -1000011  2    1    2    0    0 -3.8581738876e+02 +4.9155025266e+02 -2.7373537793e+02 2.3512460901e+03 2.2501000890e+03 4.9475e+02 0.0000e+00
       11  1    3    3    0    0 -9.1909909378e-02 +1.0372527929e-03 -6.4059171815e-02 1.1203725089e-01 5.1100000000e-04 0.0000e+00 1.0000e+00
  1000022  1    3    3    0    0 +3.8590929867e+02 -4.9155128991e+02 -7.0366148314e+02 2.4388907602e+03 2.2500000000e+03 0.0000e+00 0.0000e+00
      -11  1    4    4    0    0 -7.8498527840e-02 +2.2354149829e-02 +6.6916098464e-02 1.0554502249e-01 5.1100000000e-04 0.0000e+00 -1.0000e+00
  1000022  1    4    4    0    0 -3.8573889023e+02 +4.9152789851e+02 -2.7380229403e+02 2.3511405451e+03 2.2500000000e+03 0.0000e+00 0.0000e+00
<mgrwt>
<rscale>  0 0.46894621E+04</rscale>
<asrwt>0</asrwt>
<pdfrwt beam="1">  1        2 0.44366998E+00 0.46894621E+04</pdfrwt>
<pdfrwt beam="2">  1       -2 0.29329138E+00 0.46894621E+04</pdfrwt>
<totfact> 0.53566280E-02</totfact>
</mgrwt>
</event>
<event>
 8      1 +1.2359593e-08 4.99950200e+03 7.81860800e-03 7.82858400e-02
       -2 -1    0    0    0  501 -0.0000000000e+00 +0.0000000000e+00 +1.8440311928e+03 1.8440311928e+03 2.5500000000e-03 0.0000e+00 -1.0000e+00
        2 -1    0    0  501    0 +0.0000000000e+00 -0.0000000000e+00 -3.3886388320e+03 3.3886388320e+03 2.5500000000e-03 0.0000e+00 1.0000e+00
  1000011  2    1    2    0    0 -6.0222265969e+02 +8.8749694373e+02 -5.7513551471e+02 2.5581330845e+03 2.2500980114e+03 2.0900e+02 0.0000e+00
 -1000011  2    1    2    0    0 +6.0222265969e+02 -8.8749694373e+02 -9.6947212452e+02 2.6745369403e+03 2.2500997061e+03 1.8888e+02 0.0000e+00
       11  1    3    3    0    0 -4.2673538025e-02 +1.3754969022e-01 -6.7987499132e-02 1.5925925066e-01 5.1100000000e-04 0.0000e+00 1.0000e+00
  1000022  1    3    3    0    0 -6.0217998615e+02 +8.8735939404e+02 -5.7506752721e+02 2.5579738253e+03 2.2500000000e+03 0.0000e+00 0.0000e+00
      -11  1    4    4    0    0 -3.9310441332e-02 +1.1817927817e-02 +3.9330434486e-02 5.6851718295e-02 5.1100000000e-04 0.0000e+00 -1.0000e+00
  1000022  1    4    4    0    0 +6.0226197013e+02 -8.8750876166e+02 -9.6951145495e+02 2.6744800885e+03 2.2500000000e+03 0.0000e+00 0.0000e+00
<mgrwt>
<rscale>  0 0.49995023E+04</rscale>
<asrwt>0</asrwt>
<pdfrwt beam="1">  1        2 0.52132905E+00 0.49995023E+04</pdfrwt>
<pdfrwt beam="2">  1       -2 0.28369711E+00 0.49995023E+04</pdfrwt>
<totfact> 0.28208223E-02</totfact>
</mgrwt>
</event>
<event>
 8      1 +1.2359593e-08 5.55500700e+03 7.81860800e-03 7.74816500e-02
        2 -1    0    0  501    0 +0.0000000000e+00 +0.0000000000e+00 +3.1397796841e+03 3.1397796841e+03 2.5500000000e-03 0.0000e+00 1.0000e+00
       -2 -1    0    0    0  501 -0.0000000000e+00 -0.0000000000e+00 -2.4570280074e+03 2.4570280074e+03 2.5500000000e-03 0.0000e+00 -1.0000e+00
  1000011  2    1    2    0    0 -7.4802563211e+02 -3.0268926153e+02 -1.0836193209e+03 2.6245649288e+03 2.2500993528e+03 2.9543e+03 0.0000e+00
 -1000011  2    1    2    0    0 +7.4802563211e+02 +3.0268926153e+02 +1.7663709976e+03 2.9722427628e+03 2.2501105317e+03 1.0700e+03 0.0000e+00
       11  1    3    3    0    0 +5.5290313563e-02 +2.9441783718e-02 +7.1886473707e-03 6.3053745192e-02 5.1100000000e-04 0.0000e+00 1.0000e+00
  1000022  1    3    3    0    0 -7.4808092242e+02 -3.0271870331e+02 -1.0836265095e+03 2.6245018750e+03 2.2500000000e+03 0.0000e+00 0.0000e+00
      -11  1    4    4    0    0 +5.2524521559e-02 -9.1693793253e-02 +1.1298858560e-01 1.5470377586e-01 5.1100000000e-04 0.0000e+00 -1.0000e+00
  1000022  1    4    4    0    0 +7.4797310759e+02 +3.0278095532e+02 +1.7662580090e+03 2.9720880591e+03 2.2500000000e+03 0.0000e+00 0.0000e+00
<mgrwt>
<rscale>  0 0.55550073E+04</rscale>
<asrwt>0</asrwt>
<pdfrwt beam="1">  1        2 0.48304303E+00 0.55550073E+04</pdfrwt>
<pdfrwt beam="2">  1       -2 0.37800431E+00 0.55550073E+04</pdfrwt>
<totfact> 0.10193326E-02</totfact>
</mgrwt>
</event>
<event>
 8      1 +1.2359593e-08 4.83597600e+03 7.81860800e-03 7.85432000e-02
       -2 -1    0    0    0  501 -0.0000000000e+00 +0.0000000000e+00 +2.2891336332e+03 2.2891336333e+03 2.5500000000e-03 0.0000e+00 -1.0000e+00
        2 -1    0    0  501    0 +0.0000000000e+00 -0.0000000000e+00 -2.5540951658e+03 2.5540951658e+03 2.5500000000e-03 0.0000e+00 1.0000e+00
  1000011  2    1    2    0    0 -4.9448668964e+02 +7.0953205678e+02 +5.6915499556e+01 2.4112529296e+03 2.2500996624e+03 2.5571e+03 0.0000e+00
 -1000011  2    1    2    0    0 +4.9448668964e+02 -7.0953205678e+02 -3.2187703207e+02 2.4319758694e+03 2.2500997710e+03 5.2348e+02 0.0000e+00
       11  1    3    3    0    0 +7.2410383734e-02 -9.3092915036e-03 +2.0753397835e-02 7.5900532773e-02 5.1100000000e-04 0.0000e+00 1.0000e+00
  1000022  1    3    3    0    0 -4.9455910003e+02 +7.0954136607e+02 +5.6894746159e+01 2.4111770291e+03 2.2500000000e+03 0.0000e+00 0.0000e+00
      -11  1    4    4    0    0 -7.3106225135e-02 -2.2219006538e-02 +2.5495497205e-02 8.0551136738e-02 5.1100000000e-04 0.0000e+00 -1.0000e+00
  1000022  1    4    4    0    0 +4.9455979587e+02 -7.0950983777e+02 -3.2190252757e+02 2.4318953182e+03 2.2500000000e+03 0.0000e+00 0.0000e+00
<mgrwt>
<rscale>  0 0.48359757E+04</rscale>
<asrwt>0</asrwt>
<pdfrwt beam="1">  1        2 0.39293772E+00 0.48359757E+04</pdfrwt>
<pdfrwt beam="2">  1       -2 0.35217440E+00 0.48359757E+04</pdfrwt>
<totfact> 0.35998388E-02</totfact>
</mgrwt>
</event>
<event>
 8      1 +1.2359593e-08 5.07255800e+03 7.81860800e-03 7.81741100e-02
        2 -1    0    0  501    0 +0.0000000000e+00 +0.0000000000e+00 +2.5637078006e+03 2.5637078006e+03 2.5500000000e-03 0.0000e+00 1.0000e+00
       -2 -1    0    0    0  501 -0.0000000000e+00 -0.0000000000e+00 -2.5091440199e+03 2.5091440199e+03 2.5500000000e-03 0.0000e+00 -1.0000e+00
  1000011  2    1    2    0    0 -1.1379236681e+03 +2.6188017386e+02 +1.0670769254e+02 2.5372806050e+03 2.2501010726e+03 2.0285e+03 0.0000e+00
 -1000011  2    1    2    0    0 +1.1379236681e+03 -2.6188017386e+02 -5.2143911768e+01 2.5355712155e+03 2.2501001981e+03 4.7072e+01 0.0000e+00
       11  1    3    3    0    0 +2.0261318871e-02 +7.8257764831e-02 +4.0270304809e-02 9.0314764685e-02 5.1100000000e-04 0.0000e+00 1.0000e+00
  1000022  1    3    3    0    0 -1.1379439294e+03 +2.6180191610e+02 +1.0666742223e+02 2.5371902902e+03 2.2500000000e+03 0.0000e+00 0.0000e+00
      -11  1    4    4    0    0 -1.3674940282e-02 -8.0189456725e-02 +3.9097001491e-02 9.0256243280e-02 5.1100000000e-04 0.0000e+00 -1.0000e+00
  1000022  1    4    4    0    0 +1.1379373430e+03 -2.6179998441e+02 -5.2183008769e+01 2.5354809593e+03 2.2500000000e+03 0.0000e+00 0.0000e+00
<mgrwt>
<rscale>  0 0.50725584E+04</rscale>
<asrwt>0</asrwt>
<pdfrwt beam="1">  1        2 0.39441659E+00 0.50725584E+04</pdfrwt>
<pdfrwt beam="2">  1       -2 0.38602216E+00 0.50725584E+04</pdfrwt>
<totfact> 0.21185461E-02</totfact>
</mgrwt>
</event>
<event>
 8      1 +1.2359593e-08 4.56210400e+03 7.81860800e-03 7.89985300e-02
       -2 -1    0    0    0  501 -0.0000000000e+00 +0.0000000000e+00 +1.1925726032e+03 1.1925726032e+03 2.5500000000e-03 0.0000e+00 -1.0000e+00
        2 -1    0    0  501    0 +0.0000000000e+00 -0.0000000000e+00 -4.3630038308e+03 4.3630038308e+03 2.5500000000e-03 0.0000e+00 1.0000e+00
  1000011  2    1    2    0    0 +1.3564837465e+02 -3.4903448160e+02 -1.5877299671e+03 2.7792192113e+03 2.2500994256e+03 2.9625e+02 0.0000e+00
 -1000011  2    1    2    0    0 -1.3564837465e+02 +3.4903448160e+02 -1.5827012605e+03 2.7763572227e+03 2.2501090189e+03 1.5542e+02 0.0000e+00
       11  1    3    3    0    0 +3.5243777944e-02 +3.8169775514e-03 -1.8270345329e-01 1.8611154139e-01 5.1100000000e-04 0.0000e+00 1.0000e+00
  1000022  1    3    3    0    0 +1.3561313087e+02 -3.4903829858e+02 -1.5875472636e+03 2.7790330997e+03 2.2500000000e+03 0.0000e+00 0.0000e+00
      -11  1    4    4    0    0 +5.0062191908e-02 +8.8080905035e-02 -1.5561678377e-01 1.8569144536e-01 5.1100000000e-04 0.0000e+00 -1.0000e+00
  1000022  1    4    4    0    0 -1.3569843684e+02 +3.4894640069e+02 -1.5825456438e+03 2.7761715312e+03 2.2500000000e+03 0.0000e+00 0.0000e+00
<mgrwt>
<rscale>  0 0.45621043E+04</rscale>
<asrwt>0</asrwt>
<pdfrwt beam="1">  1        2 0.67123135E+00 0.45621043E+04</pdfrwt>
<pdfrwt beam="2">  1       -2 0.18347271E+00 0.45621043E+04</pdfrwt>
<totfact> 0.21341849E-02</totfact>
</mgrwt>
</event>
<event>
 8      1 +1.2359593e-08 4.76442900e+03 7.81860800e-03 7.86591100e-02
       -2 -1    0    0    0  501 -0.0000000000e+00 +0.0000000000e+00 +1.3697271540e+03 1.3697271540e+03 2.5500000000e-03 0.0000e+00 -1.0000e+00
        2 -1    0    0  501    0 +0.0000000000e+00 -0.0000000000e+00 -4.1431212814e+03 4.1431212814e+03 2.5500000000e-03 0.0000e+00 1.0000e+00
  1000011  2    1    2    0    0 +6.4050709668e+02 +4.4855603596e+02 -1.4138316560e+03 2.7700731869e+03 2.2500963648e+03 5.2381e+02 0.0000e+00
 -1000011  2    1    2    0    0 -6.4050709668e+02 -4.4855603596e+02 -1.3595624714e+03 2.7427752485e+03 2.2501009070e+03 4.4777e+01 0.0000e+00
       11  1    3    3    0    0 -4.0354421280e-02 -3.5812434495e-02 -1.0149815854e-01 1.1494845195e-01 5.1100000000e-04 0.0000e+00 1.0000e+00
  1000022  1    3    3    0    0 +6.4054745110e+02 +4.4859184840e+02 -1.4137301579e+03 2.7699582385e+03 2.2500000000e+03 0.0000e+00 0.0000e+00
      -11  1    4    4    0    0 -8.2445452656e-02 -5.7945180995e-02 +1.8325316018e-02 1.0242545776e-01 5.1100000000e-04 0.0000e+00 -1.0000e+00
  1000022  1    4    4    0    0 -6.4042465123e+02 -4.4849809078e+02 -1.3595807967e+03 2.7426728230e+03 2.2500000000e+03 0.0000e+00 0.0000e+00
<mgrwt>
<rscale>  0 0.47644289E+04</rscale>
<asrwt>0</asrwt>
<pdfrwt beam="1">  1        2 0.63740327E+00 0.47644289E+04</pdfrwt>
<pdfrwt beam="2">  1       -2 0.21072726E+00 0.47644289E+04</pdfrwt>
<totfact> 0.21745723E-02</totfact>
</mgrwt>
</event>
<event>
 8      1 +1.2359593e-08 4.85195200e+03 7.81860800e-03 7.85176000e-02
       -2 -1    0    0    0  501 -0.0000000000e+00 +0.0000000000e+00 +1.7837321083e+03 1.7837321083e+03 2.5500000000e-03 0.0000e+00 -1.0000e+00
        2 -1    0    0  501    0 +0.0000000000e+00 -0.0000000000e+00 -3.2994635465e+03 3.2994635465e+03 2.5500000000e-03 0.0000e+00 1.0000e+00
  1000011  2    1    2    0    0 +4.7215115593e+01 -2.4468939712e+02 -1.6713640133e+03 2.8139844050e+03 2.2500996420e+03 2.8820e+02 0.0000e+00
 -1000011  2    1    2    0    0 -4.7215115593e+01 +2.4468939712e+02 +1.5563257502e+02 2.2692112497e+03 2.2501102260e+03 2.0772e+03 0.0000e+00
       11  1    3    3    0    0 +1.7879564240e-02 +7.7564848471e-02 -1.2207694666e-01 1.4573615372e-01 5.1100000000e-04 0.0000e+00 1.0000e+00
  1000022  1    3    3    0    0 +4.7197236028e+01 -2.4476696197e+02 -1.6712419363e+03 2.8138386689e+03 2.2500000000e+03 0.0000e+00 0.0000e+00
      -11  1    4    4    0    0 +8.1415148232e-02 -3.6139055220e-03 -6.2827168105e-02 1.0290286946e-01 5.1100000000e-04 0.0000e+00 -1.0000e+00
  1000022  1    4    4    0    0 -4.7296530741e+01 +2.4469301102e+02 +1.5569540219e+02 2.2691083468e+03 2.2500000000e+03 0.0000e+00 0.0000e+00
<mgrwt>
<rscale>  0 0.48519518E+04</rscale>
<asrwt>0</asrwt>
<pdfrwt beam="1">  1        2 0.50760978E+00 0.48519518E+04</pdfrwt>
<pdfrwt beam="2">  1       -2 0.27442032E+00 0.48519518E+04</pdfrwt>
<totfact> 0.37354257E-02</totfact>
</mgrwt>
</event>
<event>
 8      1 +1.2359593e-08 4.81581400e+03 7.81860800e-03 7.85756500e-02
        2 -1    0    0  501    0 +0.0000000000e+00 +0.0000000000e+00 +2.3608151147e+03 2.3608151147e+03 2.5500000000e-03 0.0000e+00 1.0000e+00
       -2 -1    0    0    0  501 -0.0000000000e+00 -0.0000000000e+00 -2.4559385558e+03 2.4559385558e+03 2.5500000000e-03 0.0000e+00 -1.0000e+00
  1000011  2    1    2    0    0 -7.4270298262e+02 -3.2085941050e+02 +2.3623731735e+02 2.4027721494e+03 2.2500994311e+03 1.2898e+02 0.0000e+00
 -1000011  2    1    2    0    0 +7.4270298262e+02 +3.2085941050e+02 -3.3136075842e+02 2.4139815212e+03 2.2500996313e+03 3.9976e+02 0.0000e+00
       11  1    3    3    0    0 -1.3714939799e-01 -2.4236886108e-02 +7.4748530931e-03 1.3947586873e-01 5.1100000000e-04 0.0000e+00 1.0000e+00
  1000022  1    3    3    0    0 -7.4256583322e+02 -3.2083517362e+02 +2.3622984249e+02 2.4026326735e+03 2.2500000000e+03 0.0000e+00 0.0000e+00
      -11  1    4    4    0    0 -5.3943243800e-02 -4.4463052786e-02 +2.8605356827e-03 6.9966275960e-02 5.1100000000e-04 0.0000e+00 -1.0000e+00
  1000022  1    4    4    0    0 +7.4275692586e+02 +3.2090387355e+02 -3.3136361896e+02 2.4139115549e+03 2.2500000000e+03 0.0000e+00 0.0000e+00
<mgrwt>
<rscale>  0 0.48158143E+04</rscale>
<asrwt>0</asrwt>
<pdfrwt beam="1">  1        2 0.36320232E+00 0.48158143E+04</pdfrwt>
<pdfrwt beam="2">  1       -2 0.37783670E+00 0.48158143E+04</pdfrwt>
<totfact> 0.31980983E-02</totfact>
</mgrwt>
</event>
<event>
 8      1 +1.2359593e-08 4.63046800e+03 7.81860800e-03 7.88818600e-02
       -2 -1    0    0    0  501 -0.0000000000e+00 +0.0000000000e+00 +2.4249217488e+03 2.4249217488e+03 2.5500000000e-03 0.0000e+00 -1.0000e+00
        2 -1    0    0  501    0 +0.0000000000e+00 -0.0000000000e+00 -2.2105074422e+03 2.2105074422e+03 2.5500000000e-03 0.0000e+00 1.0000e+00
  1000011  2    1    2    0    0 +2.2040116380e+02 -3.4649354367e+02 -2.5196279265e+02 2.3011000432e+03 2.2500981559e+03 6.9780e+02 0.0000e+00
 -1000011  2    1    2    0    0 -2.2040116380e+02 +3.4649354367e+02 +4.6637709925e+02 2.3343291478e+03 2.2501001140e+03 2.3144e+03 0.0000e+00
       11  1    3    3    0    0 +5.9893580086e-02 +4.5987797514e-02 -6.9096981092e-02 1.0235610348e-01 5.1100000000e-04 0.0000e+00 1.0000e+00
  1000022  1    3    3    0    0 +2.2034127022e+02 -3.4653953147e+02 -2.5189369567e+02 2.3009976871e+03 2.2500000000e+03 0.0000e+00 0.0000e+00
      -11  1    4    4    0    0 +7.7730612524e-02 -6.2827167676e-03 -2.7577160711e-02 8.2718082002e-02 5.1100000000e-04 0.0000e+00 -1.0000e+00
  1000022  1    4    4    0    0 -2.2047889441e+02 +3.4649982639e+02 +4.6640467642e+02 2.3342464297e+03 2.2500000000e+03 0.0000e+00 0.0000e+00
<mgrwt>
<rscale>  0 0.46304676E+04</rscale>
<asrwt>0</asrwt>
<pdfrwt beam="1">  1        2 0.34007807E+00 0.46304676E+04</pdfrwt>
<pdfrwt beam="2">  1       -2 0.37306488E+00 0.46304676E+04</pdfrwt>
<totfact> 0.42383075E-02</totfact>
</mgrwt>
</event>
<event>
 8      1 +1.2359593e-08 7.25514500e+03 7.81860800e-03 7.55168000e-02
       -2 -1    0    0    0  501 -0.0000000000e+00 +0.0000000000e+00 +3.2638107750e+03 3.2638107750e+03 2.5500000000e-03 0.0000e+00 -1.0000e+00
        2 -1    0    0  501    0 +0.0000000000e+00 -0.0000000000e+00 -4.0318761660e+03 4.0318761660e+03 2.5500000000e-03 0.0000e+00 1.0000e+00
  1000011  2    1    2    0    0 -1.5643875483e+03 -1.8794852642e+03 +1.0789372260e+03 3.4938269577e+03 2.2500995563e+03 1.6877e+02 0.0000e+00
 -1000011  2    1    2    0    0 +1.5643875483e+03 +1.8794852642e+03 -1.8470026170e+03 3.8018599833e+03 2.2500994213e+03 7.2055e+01 0.0000e+00
       11  1    3    3    0    0 -8.2015685390e-02 +6.5866418922e-03 +9.7114818788e-02 1.2728513443e-01 5.1100000000e-04 0.0000e+00 1.0000e+00
  1000022  1    3    3    0    0 -1.5643055326e+03 -1.8794918508e+03 +1.0788401112e+03 3.4936996726e+03 2.2500000000e+03 0.0000e+00 0.0000e+00
      -11  1    4    4    0    0 +1.6762792177e-02 -3.2844429175e-02 -8.0650847363e-02 8.8682398342e-02 5.1100000000e-04 0.0000e+00 -1.0000e+00
  1000022  1    4    4    0    0 +1.5643707855e+03 +1.8795181086e+03 -1.8469219662e+03 3.8017713009e+03 2.2500000000e+03 0.0000e+00 0.0000e+00
<mgrwt>
<rscale>  0 0.72551446E+04</rscale>
<asrwt>0</asrwt>
<pdfrwt beam="1">  1        2 0.62028865E+00 0.72551446E+04</pdfrwt>
<pdfrwt beam="2">  1       -2 0.50212473E+00 0.72551446E+04</pdfrwt>
<totfact> 0.31867725E-04</totfact>
</mgrwt>
</event>
<event>
 8      1 +1.2359593e-08 5.01453700e+03 7.81860800e-03 7.82626900e-02
        2 -1    0    0  501    0 +0.0000000000e+00 +0.0000000000e+00 +3.5635336095e+03 3.5635336095e+03 2.5500000000e-03 0.0000e+00 1.0000e+00
       -2 -1    0    0    0  501 -0.0000000000e+00 -0.0000000000e+00 -1.7640903427e+03 1.7640903427e+03 2.5500000000e-03 0.0000e+00 -1.0000e+00
  1000011  2    1    2    0    0 +1.0958693045e+03 -2.2930459587e+01 +1.0572706314e+03 2.7170245265e+03 2.2500990536e+03 1.4454e+03 0.0000e+00
 -1000011  2    1    2    0    0 -1.0958693045e+03 +2.2930459587e+01 +7.4217263550e+02 2.6105994257e+03 2.2501008427e+03 1.4538e+03 0.0000e+00
       11  1    3    3    0    0 -3.8564680433e-02 -4.0638801913e-02 -1.9369462780e-02 5.9280550859e-02 5.1100000000e-04 0.0000e+00 1.0000e+00
  1000022  1    3    3    0    0 +1.0959078692e+03 -2.2889820785e+01 +1.0572900008e+03 2.7169652459e+03 2.2500000000e+03 0.0000e+00 0.0000e+00
      -11  1    4    4    0    0 -1.1514265385e-01 +6.6770251833e-02 -8.6308783613e-03 1.3338234464e-01 5.1100000000e-04 0.0000e+00 -1.0000e+00
  1000022  1    4    4    0    0 -1.0957541618e+03 +2.2863689335e+01 +7.4218126638e+02 2.6104660434e+03 2.2500000000e+03 0.0000e+00 0.0000e+00
<mgrwt>
<rscale>  0 0.50145370E+04</rscale>
<asrwt>0</asrwt>
<pdfrwt beam="1">  1        2 0.54823594E+00 0.50145370E+04</pdfrwt>
<pdfrwt beam="2">  1       -2 0.27139852E+00 0.50145370E+04</pdfrwt>
<totfact> 0.25279433E-02</totfact>
</mgrwt>
</event>
<event>
 8      1 +1.2359593e-08 5.16726700e+03 7.81860800e-03 7.80321000e-02
        2 -1    0    0  501    0 +0.0000000000e+00 +0.0000000000e+00 +1.7717182948e+03 1.7717182948e+03 2.5500000000e-03 0.0000e+00 1.0000e+00
       -2 -1    0    0    0  501 -0.0000000000e+00 -0.0000000000e+00 -3.7676200588e+03 3.7676200588e+03 2.5500000000e-03 0.0000e+00 -1.0000e+00
  1000011  2    1    2    0    0 -1.8870687716e+02 +9.7097111134e+02 -1.8513963010e+03 3.0771788126e+03 2.2501035525e+03 1.1370e+03 0.0000e+00
 -1000011  2    1    2    0    0 +1.8870687716e+02 -9.7097111134e+02 -1.4450546296e+02 2.4621595409e+03 2.2501005737e+03 2.6169e+01 0.0000e+00
       11  1    3    3    0    0 -1.1235010373e-01 +5.3281552290e-02 -1.0070133188e-01 1.6000777664e-01 5.1100000000e-04 0.0000e+00 1.0000e+00
  1000022  1    3    3    0    0 -1.8859452706e+02 +9.7091782978e+02 -1.8512955997e+03 3.0770188048e+03 2.2500000000e+03 0.0000e+00 0.0000e+00
      -11  1    4    4    0    0 +7.7012871978e-02 +4.7911101297e-03 -6.3008404462e-02 9.9620566509e-02 5.1100000000e-04 0.0000e+00 -1.0000e+00
  1000022  1    4    4    0    0 +1.8862986429e+02 -9.7097590245e+02 -1.4444245456e+02 2.4620599204e+03 2.2500000000e+03 0.0000e+00 0.0000e+00
<mgrwt>
<rscale>  0 0.51672667E+04</rscale>
<asrwt>0</asrwt>
<pdfrwt beam="1">  1        2 0.27257205E+00 0.51672667E+04</pdfrwt>
<pdfrwt beam="2">  1       -2 0.57963385E+00 0.51672667E+04</pdfrwt>
<totfact> 0.40142043E-03</totfact>
</mgrwt>
</event>
<event>
 8      1 +1.2359593e-08 4.80226900e+03 7.81860800e-03 7.85975500e-02
       -1 -1    0    0    0  501 -0.0000000000e+00 +0.0000000000e+00 +2.0274646254e+03 2.0274646254e+03 5.0400000000e-03 0.0000e+00 -1.0000e+00
        1 -1    0    0  501    0 +0.0000000000e+00 -0.0000000000e+00 -2.8436728454e+03 2.8436728454e+03 5.0400000000e-03 0.0000e+00 1.0000e+00
  1000011  2    1    2    0    0 +5.9948969011e+02 +5.8575388345e+02 -4.0664392376e+02 2.4353242655e+03 2.2500998860e+03 4.2465e+02 0.0000e+00
 -1000011  2    1    2    0    0 -5.9948969011e+02 -5.8575388345e+02 -4.0956429616e+02 2.4358132053e+03 2.2500994551e+03 8.2498e+02 0.0000e+00
       11  1    3    3    0    0 +1.2224198427e-01 +6.5053490594e-02 -4.4545896021e-02 1.4546359393e-01 5.1100000000e-04 0.0000e+00 1.0000e+00
  1000022  1    3    3    0    0 +5.9936744812e+02 +5.8568882996e+02 -4.0659937786e+02 2.4351788020e+03 2.2500000000e+03 0.0000e+00 0.0000e+00
      -11  1    4    4    0    0 -1.1275618832e-01 +2.0306907691e-02 +9.6655329339e-04 1.1457540493e-01 5.1100000000e-04 0.0000e+00 -1.0000e+00
  1000022  1    4    4    0    0 -5.9937693392e+02 -5.8577419036e+02 -4.0956526271e+02 2.4356986298e+03 2.2500000000e+03 0.0000e+00 0.0000e+00
<mgrwt>
<rscale>  0 0.48022687E+04</rscale>
<asrwt>0</asrwt>
<pdfrwt beam="1">  1        1 0.43748813E+00 0.48022687E+04</pdfrwt>
<pdfrwt beam="2">  1       -1 0.31191764E+00 0.48022687E+04</pdfrwt>
<totfact> 0.15715406E-02</totfact>
</mgrwt>
</event>
<event>
 8      1 +1.2359593e-08 4.96696200e+03 7.81860800e-03 7.83362400e-02
       -2 -1    0    0    0  501 -0.0000000000e+00 +0.0000000000e+00 +1.8105899809e+03 1.8105899809e+03 2.5500000000e-03 0.0000e+00 -1.0000e+00
        2 -1    0    0  501    0 +0.0000000000e+00 -0.0000000000e+00 -3.4064466480e+03 3.4064466480e+03 2.5500000000e-03 0.0000e+00 1.0000e+00
  1000011  2    1    2    0    0 +7.4049071423e+02 -2.4458592077e+02 -5.7817303787e+01 2.3821354458e+03 2.2501283677e+03 2.9713e+01 0.0000e+00
 -1000011  2    1    2    0    0 -7.4049071423e+02 +2.4458592077e+02 -1.5380393633e+03 2.8349011831e+03 2.2501001898e+03 2.5918e+03 0.0000e+00
       11  1    3    3    0    0 +1.4242968873e-01 +6.2725806212e-02 -3.7068099495e-02 1.5998452423e-01 5.1100000000e-04 0.0000e+00 1.0000e+00
  1000022  1    3    3    0    0 +7.4034828454e+02 -2.4464864658e+02 -5.7780235687e+01 2.3819754613e+03 2.2500000000e+03 0.0000e+00 0.0000e+00
      -11  1    4    4    0    0 +6.6517520714e-03 +1.1390706689e-02 +4.9950643934e-02 5.1665479021e-02 5.1100000000e-04 0.0000e+00 -1.0000e+00
  1000022  1    4    4    0    0 -7.4049736598e+02 +2.4457453007e+02 -1.5380893139e+03 2.8348495176e+03 2.2500000000e+03 0.0000e+00 0.0000e+00
<mgrwt>
<rscale>  0 0.49669621E+04</rscale>
<asrwt>0</asrwt>
<pdfrwt beam="1">  1        2 0.52406872E+00 0.49669621E+04</pdfrwt>
<pdfrwt beam="2">  1       -2 0.27855230E+00 0.49669621E+04</pdfrwt>
<totfact> 0.29558830E-02</totfact>
</mgrwt>
</event>
<event>
 8      1 +1.2359593e-08 4.66804900e+03 7.81860800e-03 7.88185900e-02
       -2 -1    0    0    0  501 -0.0000000000e+00 +0.0000000000e+00 +1.6545789245e+03 1.6545789245e+03 2.5500000000e-03 0.0000e+00 -1.0000e+00
        2 -1    0    0  501    0 +0.0000000000e+00 -0.0000000000e+00 -3.2924812501e+03 3.2924812501e+03 2.5500000000e-03 0.0000e+00 1.0000e+00
  1000011  2    1    2    0    0 -5.2990115424e+02 -3.1498677119e+02 -7.4626405646e+02 2.4494635780e+03 2.2500999708e+03 1.5426e+03 0.0000e+00
 -1000011  2    1    2    0    0 +5.2990115424e+02 +3.1498677119e+02 -8.9163826912e+02 2.4975965966e+03 2.2501017882e+03 1.2397e+02 0.0000e+00
       11  1    3    3    0    0 -1.8279298727e-02 +4.3885837955e-02 -1.1619195032e-01 1.2554254201e-01 5.1100000000e-04 0.0000e+00 1.0000e+00
  1000022  1    3    3    0    0 -5.2988287494e+02 -3.1503065702e+02 -7.4614786451e+02 2.4493380354e+03 2.2500000000e+03 0.0000e+00 0.0000e+00
      -11  1    4    4    0    0 -7.8965772379e-02 -5.5943039185e-03 -2.2840708985e-02 8.2394464837e-02 5.1100000000e-04 0.0000e+00 -1.0000e+00
  1000022  1    4    4    0    0 +5.2998012001e+02 +3.1499236549e+02 -8.9161542841e+02 2.4975142022e+03 2.2500000000e+03 0.0000e+00 0.0000e+00
<mgrwt>
<rscale>  0 0.46680489E+04</rscale>
<asrwt>0</asrwt>
<pdfrwt beam="1">  1        2 0.50653558E+00 0.46680489E+04</pdfrwt>
<pdfrwt beam="2">  1       -2 0.25455060E+00 0.46680489E+04</pdfrwt>
<totfact> 0.50687272E-02</totfact>
</mgrwt>
</event>
<event>
 8      1 +1.2359593e-08 5.42023600e+03 7.81860800e-03 7.76676100e-02
        2 -1    0    0  501    0 +0.0000000000e+00 +0.0000000000e+00 +1.9243614565e+03 1.9243614565e+03 2.5500000000e-03 0.0000e+00 -1.0000e+00
       -2 -1    0    0    0  501 -0.0000000000e+00 -0.0000000000e+00 -3.8167144769e+03 3.8167144769e+03 2.5500000000e-03 0.0000e+00 1.0000e+00
  1000011  2    1    2    0    0 -1.0895376389e+03 +9.6883964054e+01 -2.0496246634e+03 3.2342538738e+03 2.2501017956e+03 7.5040e+02 0.0000e+00
 -1000011  2    1    2    0    0 +1.0895376389e+03 -9.6883964054e+01 +1.5727164294e+02 2.5068220596e+03 2.2500985977e+03 8.4732e+02 0.0000e+00
       11  1    3    3    0    0 -1.5079098911e-01 -3.8556161072e-02 -1.2110744305e-01 1.9720997295e-01 5.1100000000e-04 0.0000e+00 1.0000e+00
  1000022  1    3    3    0    0 -1.0893868479e+03 +9.6922520215e+01 -2.0495035559e+03 3.2340566639e+03 2.2500000000e+03 0.0000e+00 0.0000e+00
      -11  1    4    4    0    0 +1.4528598809e-01 +3.2915101080e-02 +3.2084595650e-02 1.5238472444e-01 5.1100000000e-04 0.0000e+00 -1.0000e+00
  1000022  1    4    4    0    0 +1.0893923529e+03 -9.6916879155e+01 +1.5723955834e+02 2.5066696748e+03 2.2500000000e+03 0.0000e+00 0.0000e+00
<mgrwt>
<rscale>  0 0.54202355E+04</rscale>
<asrwt>0</asrwt>
<pdfrwt beam="1">  1        2 0.29605561E+00 0.54202355E+04</pdfrwt>
<pdfrwt beam="2">  1       -2 0.58718684E+00 0.54202355E+04</pdfrwt>
<totfact> 0.30120644E-03</totfact>
</mgrwt>
</event>
<event>
 8      1 +1.2359593e-08 5.68872800e+03 7.81860800e-03 7.73024100e-02
        1 -1    0    0  501    0 +0.0000000000e+00 +0.0000000000e+00 +3.0111422113e+03 3.0111422114e+03 5.0400000000e-03 0.0000e+00 1.0000e+00
       -1 -1    0    0    0  501 -0.0000000000e+00 -0.0000000000e+00 -2.6868227774e+03 2.6868227774e+03 5.0400000000e-03 0.0000e+00 -1.0000e+00
  1000011  2    1    2    0    0 +7.7232788996e+02 +1.5550199154e+03 +4.8477662105e+01 2.8425115389e+03 2.2500987663e+03 1.3339e+03 0.0000e+00
 -1000011  2    1    2    0    0 -7.7232788996e+02 -1.5550199154e+03 +2.7584177188e+02 2.8554534499e+03 2.2500996455e+03 7.8137e+02 0.0000e+00
       11  1    3    3    0    0 -8.6912281044e-03 -4.8503128596e-02 +2.0098270064e-03 4.9319275919e-02 5.1100000000e-04 0.0000e+00 1.0000e+00
  1000022  1    3    3    0    0 +7.7233658119e+02 +1.5550684185e+03 +4.8475652278e+01 2.8424622196e+03 2.2500000000e+03 0.0000e+00 0.0000e+00
      -11  1    4    4    0    0 -9.1062837297e-02 -1.8113903739e-01 +1.9214972692e-02 2.0364986459e-01 5.1100000000e-04 0.0000e+00 -1.0000e+00
  1000022  1    4    4    0    0 -7.7223682712e+02 -1.5548387763e+03 +2.7582255690e+02 2.8552498000e+03 2.2500000000e+03 0.0000e+00 0.0000e+00
<mgrwt>
<rscale>  0 0.56887276E+04</rscale>
<asrwt>0</asrwt>
<pdfrwt beam="1">  1        1 0.46325265E+00 0.56887276E+04</pdfrwt>
<pdfrwt beam="2">  1       -1 0.41335735E+00 0.56887276E+04</pdfrwt>
<totfact> 0.23274248E-03</totfact>
</mgrwt>
</event>
<event>
 8      1 +1.2359593e-08 5.38092500e+03 7.81860800e-03 7.77229000e-02
        2 -1    0    0  501    0 +0.0000000000e+00 +0.0000000000e+00 +4.1882382631e+03 4.1882382631e+03 2.5500000000e-03 0.0000e+00 1.0000e+00
       -2 -1    0    0    0  501 -0.0000000000e+00 -0.0000000000e+00 -1.7283135559e+03 1.7283135559e+03 2.5500000000e-03 0.0000e+00 -1.0000e+00
  1000011  2    1    2    0    0 -8.1318512230e+02 -8.6113690367e+02 +2.6335386400e+02 2.5563895203e+03 2.2500989560e+03 3.8182e+03 0.0000e+00
 -1000011  2    1    2    0    0 +8.1318512230e+02 +8.6113690367e+02 +2.1965708433e+03 3.3601622987e+03 2.2500978633e+03 6.0430e+02 0.0000e+00
       11  1    3    3    0    0 +3.8096525337e-02 -9.9549509627e-02 +3.4654795907e-02 1.1208329827e-01 5.1100000000e-04 0.0000e+00 1.0000e+00
  1000022  1    3    3    0    0 -8.1322321883e+02 -8.6103735416e+02 +2.6331920921e+02 2.5562774370e+03 2.2500000000e+03 0.0000e+00 0.0000e+00
      -11  1    4    4    0    0 +6.0123883589e-02 +7.4215831188e-02 -5.2652489202e-03 9.5660100388e-02 5.1100000000e-04 0.0000e+00 -1.0000e+00
  1000022  1    4    4    0    0 +8.1312499842e+02 +8.6106268784e+02 +2.1965761085e+03 3.3600666386e+03 2.2500000000e+03 0.0000e+00 0.0000e+00
<mgrwt>
<rscale>  0 0.53809252E+04</rscale>
<asrwt>0</asrwt>
<pdfrwt beam="1">  1        2 0.64434435E+00 0.53809252E+04</pdfrwt>
<pdfrwt beam="2">  1       -2 0.26589439E+00 0.53809252E+04</pdfrwt>
<totfact> 0.85774490E-03</totfact>
</mgrwt>
</event>
<event>
 8      1 +1.2359593e-08 5.53124800e+03 7.81860800e-03 7.75140400e-02
       -2 -1    0    0    0  501 -0.0000000000e+00 +0.0000000000e+00 +2.1752035077e+03 2.1752035077e+03 2.5500000000e-03 0.0000e+00 -1.0000e+00
        2 -1    0    0  501    0 +0.0000000000e+00 -0.0000000000e+00 -3.5163032513e+03 3.5163032513e+03 2.5500000000e-03 0.0000e+00 1.0000e+00
  1000011  2    1    2    0    0 -1.3990428442e+03 +7.2434556450e+02 -3.3914613628e+02 2.7676624497e+03 2.2500973216e+03 2.7382e+03 0.0000e+00
 -1000011  2    1    2    0    0 +1.3990428442e+03 -7.2434556450e+02 -1.0019536073e+03 2.9238443093e+03 2.2501015837e+03 3.9096e+03 0.0000e+00
       11  1    3    3    0    0 -1.3591801030e-01 -8.8848384730e-03 +3.6535831463e-02 1.4102401777e-01 5.1100000000e-04 0.0000e+00 1.0000e+00
  1000022  1    3    3    0    0 -1.3989069262e+03 +7.2435444934e+02 -3.3918267211e+02 2.7675214257e+03 2.2500000000e+03 0.0000e+00 0.0000e+00
      -11  1    4    4    0    0 +1.7995413992e-01 -6.9070934681e-02 -5.8450129744e-02 2.0142235470e-01 5.1100000000e-04 0.0000e+00 -1.0000e+00
  1000022  1    4    4    0    0 +1.3988628901e+03 -7.2427649357e+02 -1.0018951571e+03 2.9236428869e+03 2.2500000000e+03 0.0000e+00 0.0000e+00
<mgrwt>
<rscale>  0 0.55312477E+04</rscale>
<asrwt>0</asrwt>
<pdfrwt beam="1">  1        2 0.54096973E+00 0.55312477E+04</pdfrwt>
<pdfrwt beam="2">  1       -2 0.33464669E+00 0.55312477E+04</pdfrwt>
<totfact> 0.10712368E-02</totfact>
</mgrwt>
</event>
<event>
 8      1 +1.2359593e-08 4.94488600e+03 7.81860800e-03 7.83706600e-02
        2 -1    0    0  501    0 +0.0000000000e+00 +0.0000000000e+00 +2.8647368917e+03 2.8647368917e+03 2.5500000000e-03 0.0000e+00 1.0000e+00
       -2 -1    0    0    0  501 -0.0000000000e+00 -0.0000000000e+00 -2.1338695662e+03 2.1338695662e+03 2.5500000000e-03 0.0000e+00 -1.0000e+00
  1000011  2    1    2    0    0 +4.3073130032e+02 +8.5000643932e+02 +7.4633399373e+02 2.5549967968e+03 2.2501008425e+03 6.0740e+02 0.0000e+00
 -1000011  2    1    2    0    0 -4.3073130032e+02 -8.5000643932e+02 -1.5466668237e+01 2.4436096610e+03 2.2500996773e+03 9.1024e+02 0.0000e+00
       11  1    3    3    0    0 -2.9567939500e-02 +1.0755837936e-01 +9.7312794456e-02 1.4803076860e-01 5.1100000000e-04 0.0000e+00 1.0000e+00
  1000022  1    3    3    0    0 +4.3076086826e+02 +8.4989888094e+02 +7.4623668093e+02 2.5548487661e+03 2.2500000000e+03 0.0000e+00 0.0000e+00
      -11  1    4    4    0    0 -1.1021449841e-01 -4.8097280110e-02 +4.2875995913e-02 1.2766830404e-01 5.1100000000e-04 0.0000e+00 -1.0000e+00
  1000022  1    4    4    0    0 -4.3062108582e+02 -8.4995834204e+02 -1.5509544233e+01 2.4434819927e+03 2.2500000000e+03 0.0000e+00 0.0000e+00
<mgrwt>
<rscale>  0 0.49448862E+04</rscale>
<asrwt>0</asrwt>
<pdfrwt beam="1">  1        2 0.44072875E+00 0.49448862E+04</pdfrwt>
<pdfrwt beam="2">  1       -2 0.32828763E+00 0.49448862E+04</pdfrwt>
<totfact> 0.32841520E-02</totfact>
</mgrwt>
</event>
<event>
 8      1 +1.2359593e-08 4.59795700e+03 7.81860800e-03 7.89370800e-02
       -2 -1    0    0    0  501 -0.0000000000e+00 +0.0000000000e+00 +1.9132372274e+03 1.9132372274e+03 2.5500000000e-03 0.0000e+00 -1.0000e+00
        2 -1    0    0  501    0 +0.0000000000e+00 -0.0000000000e+00 -2.7624918301e+03 2.7624918301e+03 2.5500000000e-03 0.0000e+00 1.0000e+00
  1000011  2    1    2    0    0 +1.3435366991e+02 +1.6654298757e+02 -8.5192580323e+02 2.4154722565e+03 2.2500980361e+03 1.2302e+03 0.0000e+00
 -1000011  2    1    2    0    0 -1.3435366991e+02 -1.6654298757e+02 +2.6712005510e+00 2.2602568011e+03 2.2501035968e+03 3.1540e+02 0.0000e+00
       11  1    3    3    0    0 +1.8168592339e-02 +3.0531815051e-02 -1.3898830867e-01 1.4345835778e-01 5.1100000000e-04 0.0000e+00 1.0000e+00
  1000022  1    3    3    0    0 +1.3433550132e+02 +1.6651245575e+02 -8.5178681492e+02 2.4153287981e+03 2.2500000000e+03 0.0000e+00 0.0000e+00
      -11  1    4    4    0    0 -2.8133089437e-02 +3.4945223591e-02 +9.1975977533e-02 1.0233513797e-01 5.1100000000e-04 0.0000e+00 -1.0000e+00
  1000022  1    4    4    0    0 -1.3432553682e+02 -1.6657793279e+02 +2.5792245734e+00 2.2601544659e+03 2.2500000000e+03 0.0000e+00 0.0000e+00
<mgrwt>
<rscale>  0 0.45979570E+04</rscale>
<asrwt>0</asrwt>
<pdfrwt beam="1">  1        2 0.42499875E+00 0.45979570E+04</pdfrwt>
<pdfrwt beam="2">  1       -2 0.29434419E+00 0.45979570E+04</pdfrwt>
<totfact> 0.63025362E-02</totfact>
</mgrwt>
</event>
<event>
 8      1 +1.2359593e-08 5.30132300e+03 7.81860800e-03 7.78363500e-02
       -2 -1    0    0    0  501 -0.0000000000e+00 +0.0000000000e+00 +2.2128047781e+03 2.2128047781e+03 2.5500000000e-03 0.0000e+00 1.0000e+00
        2 -1    0    0  501    0 +0.0000000000e+00 -0.0000000000e+00 -3.1751582258e+03 3.1751582258e+03 2.5500000000e-03 0.0000e+00 -1.0000e+00
  1000011  2    1    2    0    0 +7.8299707689e+02 +1.0000451337e+03 -1.0823489490e+03 2.8013585493e+03 2.2501012827e+03 4.6396e+03 0.0000e+00
 -1000011  2    1    2    0    0 -7.8299707689e+02 -1.0000451337e+03 +1.1999550130e+02 2.5866044546e+03 2.2500997739e+03 2.6217e+02 0.0000e+00
       11  1    3    3    0    0 +5.6521738352e-03 -5.5556474475e-02 +1.4181291579e-02 5.7618042506e-02 5.1100000000e-04 0.0000e+00 1.0000e+00
  1000022  1    3    3    0    0 +7.8299142471e+02 +1.0001006902e+03 -1.0823631303e+03 2.8013009312e+03 2.2500000000e+03 0.0000e+00 0.0000e+00
      -11  1    4    4    0    0 +5.1047566698e-02 -7.8909349655e-02 +4.4305825888e-02 1.0390286953e-01 5.1100000000e-04 0.0000e+00 -1.0000e+00
  1000022  1    4    4    0    0 -7.8304812445e+02 -9.9996622434e+02 +1.1995119547e+02 2.5865005518e+03 2.2500000000e+03 0.0000e+00 0.0000e+00
<mgrwt>
<rscale>  0 0.53013226E+04</rscale>
<asrwt>0</asrwt>
<pdfrwt beam="1">  1        2 0.48848588E+00 0.53013226E+04</pdfrwt>
<pdfrwt beam="2">  1       -2 0.34043150E+00 0.53013226E+04</pdfrwt>
<totfact> 0.17083778E-02</totfact>
</mgrwt>
</event>
<event>
 8      1 +1.2359593e-08 4.60987300e+03 7.81860800e-03 7.89167900e-02
        2 -1    0    0  501    0 +0.0000000000e+00 +0.0000000000e+00 +3.4170359080e+03 3.4170359080e+03 2.5500000000e-03 0.0000e+00 1.0000e+00
       -2 -1    0    0    0  501 -0.0000000000e+00 -0.0000000000e+00 -1.5547780380e+03 1.5547780380e+03 2.5500000000e-03 0.0000e+00 -1.0000e+00
  1000011  2    1    2    0    0 +1.9350746834e+02 -4.6064354275e+02 +9.1785893264e+02 2.4809336693e+03 2.2500953841e+03 5.4153e+02 0.0000e+00
 -1000011  2    1    2    0    0 -1.9350746834e+02 +4.6064354275e+02 +9.4439893738e+02 2.4908802767e+03 2.2501016835e+03 1.1817e+03 0.0000e+00
       11  1    3    3    0    0 +7.3753311241e-02 +7.9106285205e-03 -2.9565288328e-02 7.9852963803e-02 5.1100000000e-04 0.0000e+00 1.0000e+00
  1000022  1    3    3    0    0 +1.9343371503e+02 -4.6065145338e+02 +9.1788849793e+02 2.4808538164e+03 2.2500000000e+03 0.0000e+00 0.0000e+00
      -11  1    4    4    0    0 +2.8575072796e-02 -7.5142095452e-02 +1.6940398902e-02 8.2159036459e-02 5.1100000000e-04 0.0000e+00 -1.0000e+00
  1000022  1    4    4    0    0 -1.9353604341e+02 +4.6071868485e+02 +9.4438199698e+02 2.4907981176e+03 2.2500000000e+03 0.0000e+00 0.0000e+00
<mgrwt>
<rscale>  0 0.46098731E+04</rscale>
<asrwt>0</asrwt>
<pdfrwt beam="1">  1        2 0.52569783E+00 0.46098731E+04</pdfrwt>
<pdfrwt beam="2">  1       -2 0.23919662E+00 0.46098731E+04</pdfrwt>
<totfact> 0.52143887E-02</totfact>
</mgrwt>
</event>
<event>
 8      1 +1.2359593e-08 6.48750200e+03 7.81860800e-03 7.63273000e-02
       -2 -1    0    0    0  501 -0.0000000000e+00 +0.0000000000e+00 +3.2502775648e+03 3.2502775648e+03 2.5500000000e-03 0.0000e+00 -1.0000e+00
        2 -1    0    0  501    0 +0.0000000000e+00 -0.0000000000e+00 -3.2372374242e+03 3.2372374242e+03 2.5500000000e-03 0.0000e+00 1.0000e+00
  1000011  2    1    2    0    0 +2.6651461759e+02 -1.3741660657e+03 -1.8642067078e+03 3.2399977615e+03 2.2501014261e+03 1.6656e+03 0.0000e+00
 -1000011  2    1    2    0    0 -2.6651461759e+02 +1.3741660657e+03 +1.8772468484e+03 3.2475172275e+03 2.2500999969e+03 2.1686e+01 0.0000e+00
       11  1    3    3    0    0 +1.0776310821e-01 -6.2536280535e-02 -4.8369696587e-02 1.3365463764e-01 5.1100000000e-04 0.0000e+00 1.0000e+00
  1000022  1    3    3    0    0 +2.6640685449e+02 -1.3741035294e+03 -1.8641583381e+03 3.2398641069e+03 2.2500000000e+03 0.0000e+00 0.0000e+00
      -11  1    4    4    0    0 -5.3169860385e-02 +1.5602142087e-01 +1.7775306917e-01 2.4241726840e-01 5.1100000000e-04 0.0000e+00 -1.0000e+00
  1000022  1    4    4    0    0 -2.6646144773e+02 +1.3740100442e+03 +1.8770690953e+03 3.2472748103e+03 2.2500000000e+03 0.0000e+00 0.0000e+00
<mgrwt>
<rscale>  0 0.64875019E+04</rscale>
<asrwt>0</asrwt>
<pdfrwt beam="1">  1        2 0.49803653E+00 0.64875019E+04</pdfrwt>
<pdfrwt beam="2">  1       -2 0.50004270E+00 0.64875019E+04</pdfrwt>
<totfact> 0.13263676E-03</totfact>
</mgrwt>
</event>
<event>
 8      1 +1.2359593e-08 5.20181300e+03 7.81860800e-03 7.79810800e-02
        2 -1    0    0  501    0 +0.0000000000e+00 +0.0000000000e+00 +3.2144978920e+03 3.2144978920e+03 2.5500000000e-03 0.0000e+00 1.0000e+00
       -2 -1    0    0    0  501 -0.0000000000e+00 -0.0000000000e+00 -2.1044385969e+03 2.1044385969e+03 2.5500000000e-03 0.0000e+00 -1.0000e+00
  1000011  2    1    2    0    0 -3.0272023345e+02 -1.2670773534e+03 +4.8545657681e+02 2.6449494523e+03 2.2501033216e+03 1.2986e+03 0.0000e+00
 -1000011  2    1    2    0    0 +3.0272023345e+02 +1.2670773534e+03 +6.2460271828e+02 2.6739870366e+03 2.2501007881e+03 3.0094e+03 0.0000e+00
       11  1    3    3    0    0 -7.4631527410e-02 -1.4816577640e-01 -7.3664440993e-03 1.6606470936e-01 5.1100000000e-04 0.0000e+00 1.0000e+00
  1000022  1    3    3    0    0 -3.0264560192e+02 -1.2669291877e+03 +4.8546394326e+02 2.6447833876e+03 2.2500000000e+03 0.0000e+00 0.0000e+00
      -11  1    4    4    0    0 -2.0641109361e-02 +1.4638832513e-01 -1.4213148820e-02 1.4851892611e-01 5.1100000000e-04 0.0000e+00 -1.0000e+00
  1000022  1    4    4    0    0 +3.0274087456e+02 +1.2669309651e+03 +6.2461693143e+02 2.6738385177e+03 2.2500000000e+03 0.0000e+00 0.0000e+00
<mgrwt>
<rscale>  0 0.52018125E+04</rscale>
<asrwt>0</asrwt>
<pdfrwt beam="1">  1        2 0.49453813E+00 0.52018125E+04</pdfrwt>
<pdfrwt beam="2">  1       -2 0.32375979E+00 0.52018125E+04</pdfrwt>
<totfact> 0.20610505E-02</totfact>
</mgrwt>
</event>
<event>
 8      1 +1.2359593e-08 4.70858000e+03 7.81860800e-03 7.87510500e-02
       -2 -1    0    0    0  501 -0.0000000000e+00 +0.0000000000e+00 +2.3851789349e+03 2.3851789349e+03 2.5500000000e-03 0.0000e+00 -1.0000e+00
        2 -1    0    0  501    0 +0.0000000000e+00 -0.0000000000e+00 -2.3238009924e+03 2.3238009924e+03 2.5500000000e-03 0.0000e+00 1.0000e+00
  1000011  2    1    2    0    0 +1.8423319048e+02 -1.6267417290e+02 +6.7829816185e+02 2.3629318390e+03 2.2501008253e+03 8.3877e+02 0.0000e+00
 -1000011  2    1    2    0    0 -1.8423319048e+02 +1.6267417290e+02 -6.1692021933e+02 2.3460480884e+03 2.2500991803e+03 3.7186e+02 0.0000e+00
       11  1    3    3    0    0 +2.1598337247e-02 +9.2031247068e-02 +4.1746520291e-02 1.0334055916e-01 5.1100000000e-04 0.0000e+00 1.0000e+00
  1000022  1    3    3    0    0 +1.8421159214e+02 -1.6276620415e+02 +6.7825641533e+02 2.3628284984e+03 2.2500000000e+03 0.0000e+00 0.0000e+00
      -11  1    4    4    0    0 -2.8740569259e-02 -7.6185018189e-02 +2.5613354195e-02 8.5360892118e-02 5.1100000000e-04 0.0000e+00 -1.0000e+00
  1000022  1    4    4    0    0 -1.8420444991e+02 +1.6275035792e+02 -6.1694583269e+02 2.3459627275e+03 2.2500000000e+03 0.0000e+00 0.0000e+00
<mgrwt>
<rscale>  0 0.47085799E+04</rscale>
<asrwt>0</asrwt>
<pdfrwt beam="1">  1        2 0.35750785E+00 0.47085799E+04</pdfrwt>
<pdfrwt beam="2">  1       -2 0.36695060E+00 0.47085799E+04</pdfrwt>
<totfact> 0.39763839E-02</totfact>
</mgrwt>
</event>
<event>
 8      1 +1.2359593e-08 5.18106100e+03 7.81860800e-03 7.80116800e-02
        2 -1    0    0  501    0 +0.0000000000e+00 +0.0000000000e+00 +4.2198006190e+03 4.2198006190e+03 2.5500000000e-03 0.0000e+00 1.0000e+00
       -2 -1    0    0    0  501 -0.0000000000e+00 -0.0000000000e+00 -1.5903236409e+03 1.5903236409e+03 2.5500000000e-03 0.0000e+00 -1.0000e+00
  1000011  2    1    2    0    0 +1.2614808337e+03 -1.6626403690e+02 +1.1240458502e+03 2.8187577289e+03 2.2500974284e+03 5.8461e+01 0.0000e+00
 -1000011  2    1    2    0    0 -1.2614808337e+03 +1.6626403690e+02 +1.5054311279e+03 2.9913665310e+03 2.2501051571e+03 2.1759e+03 0.0000e+00
       11  1    3    3    0    0 +1.3974442318e-01 -7.3000840563e-02 +7.2175203719e-02 1.7339880978e-01 5.1100000000e-04 0.0000e+00 1.0000e+00
  1000022  1    3    3    0    0 +1.2613410892e+03 -1.6619103606e+02 +1.1239736750e+03 2.8185843301e+03 2.2500000000e+03 0.0000e+00 0.0000e+00
      -11  1    4    4    0    0 -1.5134077285e-01 -1.7159176499e-03 +1.9408037937e-02 1.5259065006e-01 5.1100000000e-04 0.0000e+00 -1.0000e+00
  1000022  1    4    4    0    0 -1.2613294929e+03 +1.6626575282e+02 +1.5054117199e+03 2.9912139403e+03 2.2500000000e+03 0.0000e+00 0.0000e+00
<mgrwt>
<rscale>  0 0.51810612E+04</rscale>
<asrwt>0</asrwt>
<pdfrwt beam="1">  1        2 0.64920008E+00 0.51810612E+04</pdfrwt>
<pdfrwt beam="2">  1       -2 0.24466518E+00 0.51810612E+04</pdfrwt>
<totfact> 0.11041733E-02</totfact>
</mgrwt>
</event>
<event>
 8      1 +1.2359593e-08 4.99084600e+03 7.81860800e-03 7.82992100e-02
        2 -1    0    0  501    0 +0.0000000000e+00 +0.0000000000e+00 +2.4706832008e+03 2.4706832008e+03 2.5500000000e-03 0.0000e+00 1.0000e+00
       -2 -1    0    0    0  501 -0.0000000000e+00 -0.0000000000e+00 -2.5204106237e+03 2.5204106237e+03 2.5500000000e-03 0.0000e+00 -1.0000e+00
  1000011  2    1    2    0    0 -8.9094286315e+02 -4.5405494089e+02 +3.8044636277e+02 2.4915060255e+03 2.2500928348e+03 5.9032e+02 0.0000e+00
 -1000011  2    1    2    0    0 +8.9094286315e+02 +4.5405494089e+02 -4.3017378564e+02 2.4995877991e+03 2.2500987989e+03 6.3290e+02 0.0000e+00
       11  1    3    3    0    0 +1.9903731641e-02 -9.1679206182e-02 +2.6394802013e-02 9.7458615875e-02 5.1100000000e-04 0.0000e+00 1.0000e+00
  1000022  1    3    3    0    0 -8.9096276688e+02 -4.5396326169e+02 +3.8041996796e+02 2.4914085668e+03 2.2500000000e+03 0.0000e+00 0.0000e+00
      -11  1    4    4    0    0 +9.0787647332e-02 -6.4152608274e-02 -2.5014342671e-02 1.1394705817e-01 5.1100000000e-04 0.0000e+00 -1.0000e+00
  1000022  1    4    4    0    0 +8.9085207550e+02 +4.5411909350e+02 -4.3014877130e+02 2.4994738520e+03 2.2500000000e+03 0.0000e+00 0.0000e+00
<mgrwt>
<rscale>  0 0.49908461E+04</rscale>
<asrwt>0</asrwt>
<pdfrwt beam="1">  1        2 0.38010511E+00 0.49908461E+04</pdfrwt>
<pdfrwt beam="2">  1       -2 0.38775548E+00 0.49908461E+04</pdfrwt>
<totfact> 0.23533844E-02</totfact>
</mgrwt>
</event>
<event>
 8      1 +1.2359593e-08 5.82309400e+03 7.81860800e-03 7.71273100e-02
       -2 -1    0    0    0  501 -0.0000000000e+00 +0.0000000000e+00 +4.8315318178e+03 4.8315318178e+03 2.5500000000e-03 0.0000e+00 -1.0000e+00
        2 -1    0    0  501    0 +0.0000000000e+00 -0.0000000000e+00 -1.7545377288e+03 1.7545377288e+03 2.5500000000e-03 0.0000e+00 1.0000e+00
  1000011  2    1    2    0    0 -7.7445379298e+02 -1.1214720069e+03 +1.2735034366e+02 2.6337503988e+03 2.2500988675e+03 1.5126e+03 0.0000e+00
 -1000011  2    1    2    0    0 +7.7445379298e+02 +1.1214720069e+03 +2.9496437454e+03 3.9523191478e+03 2.2501000603e+03 1.7530e+03 0.0000e+00
       11  1    3    3    0    0 -1.2571997355e-01 -1.1249802903e-01 -8.5378324813e-03 1.6892150075e-01 5.1100000000e-04 0.0000e+00 1.0000e+00
  1000022  1    3    3    0    0 -7.7432807301e+02 -1.1213595089e+03 +1.2735888150e+02 2.6335814773e+03 2.2500000000e+03 0.0000e+00 0.0000e+00
      -11  1    4    4    0    0 -8.3492573407e-03 +4.2734316953e-02 +2.5111644124e-01 2.5486400224e-01 5.1100000000e-04 0.0000e+00 -1.0000e+00
  1000022  1    4    4    0    0 +7.7446214224e+02 +1.1214292726e+03 +2.9493926290e+03 3.9520642838e+03 2.2500000000e+03 0.0000e+00 0.0000e+00
<mgrwt>
<rscale>  0 0.58230936E+04</rscale>
<asrwt>0</asrwt>
<pdfrwt beam="1">  1        2 0.26992888E+00 0.58230936E+04</pdfrwt>
<pdfrwt beam="2">  1       -2 0.74331259E+00 0.58230936E+04</pdfrwt>
<totfact> 0.96973831E-04</totfact>
</mgrwt>
</event>
<event>
 8      1 +1.2359593e-08 4.87447700e+03 7.81860800e-03 7.84816800e-02
        1 -1    0    0  501    0 +0.0000000000e+00 +0.0000000000e+00 +1.7224431329e+03 1.7224431329e+03 5.0400000000e-03 0.0000e+00 1.0000e+00
       -1 -1    0    0    0  501 -0.0000000000e+00 -0.0000000000e+00 -3.4486656769e+03 3.4486656769e+03 5.0400000000e-03 0.0000e+00 -1.0000e+00
  1000011  2    1    2    0    0 +8.4955060854e+02 +2.0288220725e+02 -1.2217660206e+03 2.7052770689e+03 2.2500920834e+03 1.2261e+03 0.0000e+00
 -1000011  2    1    2    0    0 -8.4955060854e+02 -2.0288220725e+02 -5.0445652342e+02 2.4658317409e+03 2.2501005230e+03 4.0335e+02 0.0000e+00
       11  1    3    3    0    0 +1.2011123778e-01 -3.4863492947e-02 -5.7305572638e-02 1.3757311569e-01 5.1100000000e-04 0.0000e+00 1.0000e+00
  1000022  1    3    3    0    0 +8.4943049731e+02 +2.0291707074e+02 -1.2217087150e+03 2.7051394958e+03 2.2500000000e+03 0.0000e+00 0.0000e+00
      -11  1    4    4    0    0 -7.5400431704e-02 +6.4874363884e-02 -8.2532235337e-02 1.2925068095e-01 5.1100000000e-04 0.0000e+00 -1.0000e+00
  1000022  1    4    4    0    0 -8.4947520811e+02 -2.0294708161e+02 -5.0437399119e+02 2.4657024902e+03 2.2500000000e+03 0.0000e+00 0.0000e+00
<mgrwt>
<rscale>  0 0.48744766E+04</rscale>
<asrwt>0</asrwt>
<pdfrwt beam="1">  1        1 0.26499125E+00 0.48744766E+04</pdfrwt>
<pdfrwt beam="2">  1       -1 0.53056395E+00 0.48744766E+04</pdfrwt>
<totfact> 0.32605102E-03</totfact>
</mgrwt>
</event>
<event>
 8      1 +1.2359593e-08 5.49622000e+03 7.81860800e-03 7.75621000e-02
        2 -1    0    0  501    0 +0.0000000000e+00 +0.0000000000e+00 +3.0973971543e+03 3.0973971543e+03 2.5500000000e-03 0.0000e+00 1.0000e+00
       -2 -1    0    0    0  501 -0.0000000000e+00 -0.0000000000e+00 -2.4382110418e+03 2.4382110418e+03 2.5500000000e-03 0.0000e+00 -1.0000e+00
  1000011  2    1    2    0    0 -1.3109418072e+03 -8.8533226437e+01 -5.5002446293e+02 2.6630584626e+03 2.2500993114e+03 2.8640e+01 0.0000e+00
 -1000011  2    1    2    0    0 +1.3109418072e+03 +8.8533226437e+01 +1.2092105754e+03 2.8725497335e+03 2.2500989316e+03 1.4789e+03 0.0000e+00
       11  1    3    3    0    0 -1.4954252089e-01 -3.5084202856e-02 -8.7448982102e-02 1.7675251699e-01 5.1100000000e-04 0.0000e+00 1.0000e+00
  1000022  1    3    3    0    0 -1.3107922647e+03 -8.8498142234e+01 -5.4993701395e+02 2.6628817101e+03 2.2500000000e+03 0.0000e+00 0.0000e+00
      -11  1    4    4    0    0 -3.1803169124e-02 +6.3513128413e-02 +4.3032521192e-02 8.3050693273e-02 5.1100000000e-04 0.0000e+00 -1.0000e+00
  1000022  1    4    4    0    0 +1.3109736104e+03 +8.8469713308e+01 +1.2091675428e+03 2.8724666828e+03 2.2500000000e+03 0.0000e+00 0.0000e+00
<mgrwt>
<rscale>  0 0.54962198E+04</rscale>
<asrwt>0</asrwt>
<pdfrwt beam="1">  1        2 0.47652264E+00 0.54962198E+04</pdfrwt>
<pdfrwt beam="2">  1       -2 0.37510939E+00 0.54962198E+04</pdfrwt>
<totfact> 0.11381526E-02</totfact>
</mgrwt>
</event>
<event>
 8      1 +1.2359593e-08 5.58325900e+03 7.81860800e-03 7.74433600e-02
        2 -1    0    0  501    0 +0.0000000000e+00 +0.0000000000e+00 +3.5285972381e+03 3.5285972381e+03 2.5500000000e-03 0.0000e+00 1.0000e+00
       -2 -1    0    0    0  501 -0.0000000000e+00 -0.0000000000e+00 -2.2085816262e+03 2.2085816262e+03 2.5500000000e-03 0.0000e+00 -1.0000e+00
  1000011  2    1    2    0    0 +1.3174802665e+03 +9.7451396694e+02 +8.7753504631e+02 2.9186385057e+03 2.2501002744e+03 6.3842e+01 0.0000e+00
 -1000011  2    1    2    0    0 -1.3174802665e+03 -9.7451396694e+02 +4.4248056558e+02 2.8185403587e+03 2.2500997707e+03 2.7586e+01 0.0000e+00
       11  1    3    3    0    0 +7.5546861856e-02 +1.4279914459e-01 +9.6124882518e-02 1.8798717537e-01 5.1100000000e-04 0.0000e+00 1.0000e+00
  1000022  1    3    3    0    0 +1.3174047196e+03 +9.7437116780e+02 +8.7743892143e+02 2.9184505185e+03 2.2500000000e+03 0.0000e+00 0.0000e+00
      -11  1    4    4    0    0 -1.2608537097e-01 -1.4234533345e-01 +3.0162711127e-02 1.9253510017e-01 5.1100000000e-04 0.0000e+00 -1.0000e+00
  1000022  1    4    4    0    0 -1.3173541811e+03 -9.7437162161e+02 +4.4245040287e+02 2.8183478236e+03 2.2500000000e+03 0.0000e+00 0.0000e+00
<mgrwt>
<rscale>  0 0.55832589E+04</rscale>
<asrwt>0</asrwt>
<pdfrwt beam="1">  1        2 0.54286111E+00 0.55832589E+04</pdfrwt>
<pdfrwt beam="2">  1       -2 0.33978179E+00 0.55832589E+04</pdfrwt>
<totfact> 0.97126763E-03</totfact>
</mgrwt>
</event>
<event>
 8      1 +1.2359593e-08 5.22308700e+03 7.81860800e-03 7.79498600e-02
       -2 -1    0    0    0  501 -0.0000000000e+00 +0.0000000000e+00 +2.1774189302e+03 2.1774189302e+03 2.5500000000e-03 0.0000e+00 -1.0000e+00
        2 -1    0    0  501    0 +0.0000000000e+00 -0.0000000000e+00 -3.1322216471e+03 3.1322216471e+03 2.5500000000e-03 0.0000e+00 1.0000e+00
  1000011  2    1    2    0    0 -4.0306282235e+02 +1.2569912801e+03 -3.5403375064e+02 2.6326377121e+03 2.2501010443e+03 6.6074e+01 0.0000e+00
 -1000011  2    1    2    0    0 +4.0306282235e+02 -1.2569912801e+03 -6.0076896617e+02 2.6770028652e+03 2.2500965029e+03 1.1978e+03 0.0000e+00
       11  1    3    3    0    0 +2.1803266207e-02 -1.8508147202e-02 -7.9979341552e-02 8.4940506387e-02 5.1100000000e-04 0.0000e+00 1.0000e+00
  1000022  1    3    3    0    0 -4.0308462561e+02 +1.2570097883e+03 -3.5395377130e+02 2.6325527716e+03 2.2500000000e+03 0.0000e+00 0.0000e+00
      -11  1    4    4    0    0 +3.3605825650e-02 -1.6320169121e-01 -2.6068585151e-02 1.6865341776e-01 5.1100000000e-04 0.0000e+00 -1.0000e+00
  1000022  1    4    4    0    0 +4.0302921652e+02 -1.2568280784e+03 -6.0074289759e+02 2.6768342117e+03 2.2500000000e+03 0.0000e+00 0.0000e+00
<mgrwt>
<rscale>  0 0.52230867E+04</rscale>
<asrwt>0</asrwt>
<pdfrwt beam="1">  1        2 0.48188026E+00 0.52230867E+04</pdfrwt>
<pdfrwt beam="2">  1       -2 0.33498752E+00 0.52230867E+04</pdfrwt>
<totfact> 0.19820130E-02</totfact>
</mgrwt>
</event>
<event>
 8      1 +1.2359593e-08 4.85306900e+03 7.81860800e-03 7.85158100e-02
       -2 -1    0    0    0  501 -0.0000000000e+00 +0.0000000000e+00 +1.4881572566e+03 1.4881572566e+03 2.5500000000e-03 0.0000e+00 -1.0000e+00
        2 -1    0    0  501    0 +0.0000000000e+00 -0.0000000000e+00 -3.9566178445e+03 3.9566178445e+03 2.5500000000e-03 0.0000e+00 1.0000e+00
  1000011  2    1    2    0    0 +6.6091374284e+02 +4.1917375227e+02 -7.1693490554e+02 2.4878668677e+03 2.2501049492e+03 1.3374e+03 0.0000e+00
 -1000011  2    1    2    0    0 -6.6091374284e+02 -4.1917375227e+02 -1.7515256823e+03 2.9569082334e+03 2.2501001033e+03 1.3243e+03 0.0000e+00
       11  1    3    3    0    0 +9.0303247378e-02 -1.5300709415e-02 +4.6781882082e-02 1.0284742682e-01 5.1100000000e-04 0.0000e+00 1.0000e+00
  1000022  1    3    3    0    0 +6.6082343959e+02 +4.1918905298e+02 -7.1698168743e+02 2.4877640203e+03 2.2500000000e+03 0.0000e+00 0.0000e+00
      -11  1    4    4    0    0 -4.6097377838e-02 -1.1710886614e-01 -6.5522616952e-02 1.4189055332e-01 5.1100000000e-04 0.0000e+00 -1.0000e+00
  1000022  1    4    4    0    0 -6.6086764546e+02 -4.1905664340e+02 -1.7514601597e+03 2.9567663429e+03 2.2500000000e+03 0.0000e+00 0.0000e+00
<mgrwt>
<rscale>  0 0.48530689E+04</rscale>
<asrwt>0</asrwt>
<pdfrwt beam="1">  1        2 0.60871043E+00 0.48530689E+04</pdfrwt>
<pdfrwt beam="2">  1       -2 0.22894727E+00 0.48530689E+04</pdfrwt>
<totfact> 0.23604968E-02</totfact>
</mgrwt>
</event>
<event>
 8      1 +1.2359593e-08 4.80632400e+03 7.81860800e-03 7.85909800e-02
       -2 -1    0    0    0  501 -0.0000000000e+00 +0.0000000000e+00 +1.7941793361e+03 1.7941793361e+03 2.5500000000e-03 0.0000e+00 -1.0000e+00
        2 -1    0    0  501    0 +0.0000000000e+00 -0.0000000000e+00 -3.2188462852e+03 3.2188462852e+03 2.5500000000e-03 0.0000e+00 1.0000e+00
  1000011  2    1    2    0    0 +5.0572702555e+02 +6.7470892099e+02 -7.4902644751e+02 2.5169418133e+03 2.2501030021e+03 3.1819e+02 0.0000e+00
 -1000011  2    1    2    0    0 -5.0572702555e+02 -6.7470892099e+02 -6.7564050156e+02 2.4960838080e+03 2.2501005170e+03 1.2011e+03 0.0000e+00
       11  1    3    3    0    0 -5.8712666439e-02 -3.3513883348e-02 -5.6517153981e-02 8.8118142950e-02 5.1100000000e-04 0.0000e+00 1.0000e+00
  1000022  1    3    3    0    0 +5.0578573822e+02 +6.7474243487e+02 -7.4896993036e+02 2.5168536952e+03 2.2500000000e+03 0.0000e+00 0.0000e+00
      -11  1    4    4    0    0 -9.0203806849e-02 +4.3857794598e-02 -1.8019554052e-02 1.0190779016e-01 5.1100000000e-04 0.0000e+00 -1.0000e+00
  1000022  1    4    4    0    0 -5.0563682174e+02 -6.7475277878e+02 -6.7562248201e+02 2.4959819002e+03 2.2500000000e+03 0.0000e+00 0.0000e+00
<mgrwt>
<rscale>  0 0.48063240E+04</rscale>
<asrwt>0</asrwt>
<pdfrwt beam="1">  1        2 0.49520712E+00 0.48063240E+04</pdfrwt>
<pdfrwt beam="2">  1       -2 0.27602759E+00 0.48063240E+04</pdfrwt>
<totfact> 0.41452128E-02</totfact>
</mgrwt>
</event>
<event>
 8      1 +1.2359593e-08 4.77509900e+03 7.81860800e-03 7.86416900e-02
        1 -1    0    0  501    0 +0.0000000000e+00 +0.0000000000e+00 +4.6706884584e+03 4.6706884584e+03 5.0400000000e-03 0.0000e+00 1.0000e+00
       -1 -1    0    0    0  501 -0.0000000000e+00 -0.0000000000e+00 -1.2204611326e+03 1.2204611326e+03 5.0400000000e-03 0.0000e+00 -1.0000e+00
  1000011  2    1    2    0    0 +2.3589578082e+02 -7.5914175894e+02 +1.6336492596e+03 2.8920081205e+03 2.2501017834e+03 1.7972e+03 0.0000e+00
 -1000011  2    1    2    0    0 -2.3589578082e+02 +7.5914175894e+02 +1.8165780662e+03 2.9991414706e+03 2.2501001445e+03 2.7028e+02 0.0000e+00
       11  1    3    3    0    0 +8.0383841733e-02 -1.1100095086e-01 +1.2500450119e-01 1.8549705968e-01 5.1100000000e-04 0.0000e+00 1.0000e+00
  1000022  1    3    3    0    0 +2.3581539698e+02 -7.5903075799e+02 +1.6335242551e+03 2.8918226234e+03 2.2500000000e+03 0.0000e+00 0.0000e+00
      -11  1    4    4    0    0 -3.0111698840e-02 +1.3627115592e-01 +8.4192834311e-02 1.6298845516e-01 5.1100000000e-04 0.0000e+00 -1.0000e+00
  1000022  1    4    4    0    0 -2.3586566912e+02 +7.5900548779e+02 +1.8164938733e+03 2.9989784821e+03 2.2500000000e+03 0.0000e+00 0.0000e+00
<mgrwt>
<rscale>  0 0.47750995E+04</rscale>
<asrwt>0</asrwt>
<pdfrwt beam="1">  1        1 0.71856743E+00 0.47750995E+04</pdfrwt>
<pdfrwt beam="2">  1       -1 0.18776326E+00 0.47750995E+04</pdfrwt>
<totfact> 0.28313592E-03</totfact>
</mgrwt>
</event>
<event>
 8      1 +1.2359593e-08 4.61713200e+03 7.81860800e-03 7.89044500e-02
       -2 -1    0    0    0  501 -0.0000000000e+00 +0.0000000000e+00 +1.7473788951e+03 1.7473788951e+03 2.5500000000e-03 0.0000e+00 1.0000e+00
        2 -1    0    0  501    0 +0.0000000000e+00 -0.0000000000e+00 -3.0499838394e+03 3.0499838394e+03 2.5500000000e-03 0.0000e+00 -1.0000e+00
  1000011  2    1    2    0    0 +1.4013201683e+02 -3.4675906120e+02 -2.8152902600e+02 2.2982783330e+03 2.2500990811e+03 7.2344e+02 0.0000e+00
 -1000011  2    1    2    0    0 -1.4013201683e+02 +3.4675906120e+02 -1.0210759183e+03 2.4990844016e+03 2.2500995504e+03 1.1167e+03 0.0000e+00
       11  1    3    3    0    0 +1.5155369295e-03 +7.3599239370e-02 +3.5341814678e-02 8.1660574581e-02 5.1100000000e-04 0.0000e+00 1.0000e+00
  1000022  1    3    3    0    0 +1.4013050130e+02 -3.4683266044e+02 -2.8156436781e+02 2.2981966724e+03 2.2500000000e+03 0.0000e+00 0.0000e+00
      -11  1    4    4    0    0 -7.7945664065e-02 +1.8668347389e-02 -1.2308400806e-01 1.4688079299e-01 5.1100000000e-04 0.0000e+00 -1.0000e+00
  1000022  1    4    4    0    0 -1.4005407117e+02 +3.4674039285e+02 -1.0209528343e+03 2.4989375208e+03 2.2500000000e+03 0.0000e+00 0.0000e+00
<mgrwt>
<rscale>  0 0.46171322E+04</rscale>
<asrwt>0</asrwt>
<pdfrwt beam="1">  1        2 0.46922828E+00 0.46171322E+04</pdfrwt>
<pdfrwt beam="2">  1       -2 0.26882752E+00 0.46171322E+04</pdfrwt>
<totfact> 0.59849974E-02</totfact>
</mgrwt>
</event>
<event>
 8      1 +1.2359593e-08 4.96352800e+03 7.81860800e-03 7.83415800e-02
        2 -1    0    0  501    0 +0.0000000000e+00 +0.0000000000e+00 +3.2482743021e+03 3.2482743021e+03 2.5500000000e-03 0.0000e+00 -1.0000e+00
       -2 -1    0    0    0  501 -0.0000000000e+00 -0.0000000000e+00 -1.8961306791e+03 1.8961306791e+03 2.5500000000e-03 0.0000e+00 1.0000e+00
  1000011  2    1    2    0    0 -8.6816708883e+02 -5.6436251062e+02 +5.1552340701e+02 2.5300028811e+03 2.2500957885e+03 4.8814e+02 0.0000e+00
 -1000011  2    1    2    0    0 +8.6816708883e+02 +5.6436251062e+02 +8.3662021600e+02 2.6144021001e+03 2.2500990684e+03 1.6450e+02 0.0000e+00
       11  1    3    3    0    0 -8.6194325948e-02 -1.1431170084e-01 +3.5404369891e-02 1.4748002282e-01 5.1100000000e-04 0.0000e+00 1.0000e+00
  1000022  1    3    3    0    0 -8.6808089451e+02 -5.6424819892e+02 +5.1548800264e+02 2.5298554011e+03 2.2500000000e+03 0.0000e+00 0.0000e+00
      -11  1    4    4    0    0 +2.3072483638e-02 +1.2077425734e-01 +1.5385906059e-02 1.2391830980e-01 5.1100000000e-04 0.0000e+00 -1.0000e+00
  1000022  1    4    4    0    0 +8.6814401635e+02 +5.6424173636e+02 +8.3660483009e+02 2.6142781818e+03 2.2500000000e+03 0.0000e+00 0.0000e+00
<mgrwt>
<rscale>  0 0.49635280E+04</rscale>
<asrwt>0</asrwt>
<pdfrwt beam="1">  1        2 0.49973450E+00 0.49635280E+04</pdfrwt>
<pdfrwt beam="2">  1       -2 0.29171242E+00 0.49635280E+04</pdfrwt>
<totfact> 0.31404001E-02</totfact>
</mgrwt>
</event>
<event>
 8      1 +1.2359593e-08 5.08982100e+03 7.81860800e-03 7.81479900e-02
        1 -1    0    0  501    0 +0.0000000000e+00 +0.0000000000e+00 +3.0517982948e+03 3.0517982948e+03 5.0400000000e-03 0.0000e+00 -1.0000e+00
       -1 -1    0    0    0  501 -0.0000000000e+00 -0.0000000000e+00 -2.1222138615e+03 2.1222138615e+03 5.0400000000e-03 0.0000e+00 1.0000e+00
  1000011  2    1    2    0    0 -3.5419918330e+02 +7.5045440847e+02 -4.0075062427e+02 2.4314994244e+03 2.2500998883e+03 2.8945e+03 0.0000e+00
 -1000011  2    1    2    0    0 +3.5419918330e+02 -7.5045440847e+02 +1.3303350576e+03 2.7425127320e+03 2.2500990731e+03 1.1079e+03 0.0000e+00
       11  1    3    3    0    0 +4.8630982395e-02 +1.2549828851e-02 -9.1394665629e-02 1.0428670353e-01 5.1100000000e-04 0.0000e+00 1.0000e+00
  1000022  1    3    3    0    0 -3.5424781429e+02 +7.5044185864e+02 -4.0065922961e+02 2.4313951377e+03 2.2500000000e+03 0.0000e+00 0.0000e+00
      -11  1    4    4    0    0 +2.3611490152e-02 +5.7620456630e-02 +9.7976177423e-02 1.1609139408e-01 5.1100000000e-04 0.0000e+00 -1.0000e+00
  1000022  1    4    4    0    0 +3.5417557181e+02 -7.5051202893e+02 +1.3302370815e+03 2.7423966406e+03 2.2500000000e+03 0.0000e+00 0.0000e+00
<mgrwt>
<rscale>  0 0.50898207E+04</rscale>
<asrwt>0</asrwt>
<pdfrwt beam="1">  1        1 0.46950743E+00 0.50898207E+04</pdfrwt>
<pdfrwt beam="2">  1       -1 0.32649444E+00 0.50898207E+04</pdfrwt>
<totfact> 0.87134170E-03</totfact>
</mgrwt>
</event>
<event>
 8      1 +1.2359593e-08 4.61136900e+03 7.81860800e-03 7.89142400e-02
        2 -1    0    0  501    0 +0.0000000000e+00 +0.0000000000e+00 +3.1781554702e+03 3.1781554702e+03 2.5500000000e-03 0.0000e+00 1.0000e+00
       -2 -1    0    0    0  501 -0.0000000000e+00 -0.0000000000e+00 -1.6727253987e+03 1.6727253987e+03 2.5500000000e-03 0.0000e+00 -1.0000e+00
  1000011  2    1    2    0    0 -1.6235798852e+02 -4.4875270608e+02 +9.2066694384e+02 2.4775626556e+03 2.2500999941e+03 9.4904e+01 0.0000e+00
 -1000011  2    1    2    0    0 +1.6235798852e+02 +4.4875270608e+02 +5.8476312769e+02 2.3733182133e+03 2.2501005129e+03 6.9755e+02 0.0000e+00
       11  1    3    3    0    0 +4.8345531855e-02 -9.2123261730e-02 +9.0733035563e-02 1.3804611584e-01 5.1100000000e-04 0.0000e+00 1.0000e+00
  1000022  1    3    3    0    0 -1.6240633405e+02 -4.4866058282e+02 +9.2057621080e+02 2.4774246095e+03 2.2500000000e+03 0.0000e+00 0.0000e+00
      -11  1    4    4    0    0 +4.5380160346e-02 +1.0387116408e-01 -1.5000720260e-02 1.1434098273e-01 5.1100000000e-04 0.0000e+00 -1.0000e+00
  1000022  1    4    4    0    0 +1.6231260836e+02 +4.4864883492e+02 +5.8477812842e+02 2.3732038723e+03 2.2500000000e+03 0.0000e+00 0.0000e+00
<mgrwt>
<rscale>  0 0.46113692E+04</rscale>
<asrwt>0</asrwt>
<pdfrwt beam="1">  1        2 0.48894700E+00 0.46113692E+04</pdfrwt>
<pdfrwt beam="2">  1       -2 0.25734237E+00 0.46113692E+04</pdfrwt>
<totfact> 0.58230454E-02</totfact>
</mgrwt>
</event>
<event>
 8      1 +1.2359593e-08 5.99405700e+03 7.81860800e-03 7.69113900e-02
        2 -1    0    0  501    0 +0.0000000000e+00 +0.0000000000e+00 +2.3083206493e+03 2.3083206493e+03 2.5500000000e-03 0.0000e+00 -1.0000e+00
       -2 -1    0    0    0  501 -0.0000000000e+00 -0.0000000000e+00 -3.8912178470e+03 3.8912178470e+03 2.5500000000e-03 0.0000e+00 1.0000e+00
  1000011  2    1    2    0    0 +4.1908760847e+02 +1.0779312612e+03 +8.7038421888e+02 2.6754623841e+03 2.2501022317e+03 4.1821e+02 0.0000e+00
 -1000011  2    1    2    0    0 -4.1908760847e+02 -1.0779312612e+03 -2.4532814166e+03 3.5240761122e+03 2.2501005552e+03 8.0008e+01 0.0000e+00
       11  1    3    3    0    0 -1.7740943666e-02 +1.5092128478e-01 +4.1869117897e-02 1.5762378949e-01 5.1100000000e-04 0.0000e+00 1.0000e+00
  1000022  1    3    3    0    0 +4.1910534942e+02 +1.0777803399e+03 +8.7034234977e+02 2.6753047604e+03 2.2500000000e+03 0.0000e+00 0.0000e+00
      -11  1    4    4    0    0 -6.7475202057e-02 +2.4592119904e-02 -1.1543605094e-02 7.2740572304e-02 5.1100000000e-04 0.0000e+00 -1.0000e+00
  1000022  1    4    4    0    0 -4.1902013327e+02 -1.0779558533e+03 -2.4532698730e+03 3.5240033716e+03 2.2500000000e+03 0.0000e+00 0.0000e+00
<mgrwt>
<rscale>  0 0.59940566E+04</rscale>
<asrwt>0</asrwt>
<pdfrwt beam="1">  1        2 0.35512625E+00 0.59940566E+04</pdfrwt>
<pdfrwt beam="2">  1       -2 0.59864890E+00 0.59940566E+04</pdfrwt>
<totfact> 0.15848459E-03</totfact>
</mgrwt>
</event>
<event>
 8      1 +1.2359593e-08 5.62756600e+03 7.81860800e-03 7.73837600e-02
       -2 -1    0    0    0  501 -0.0000000000e+00 +0.0000000000e+00 +2.2864989856e+03 2.2864989856e+03 2.5500000000e-03 0.0000e+00 -1.0000e+00
        2 -1    0    0  501    0 +0.0000000000e+00 -0.0000000000e+00 -3.4626625007e+03 3.4626625007e+03 2.5500000000e-03 0.0000e+00 1.0000e+00
  1000011  2    1    2    0    0 +7.8169140296e+02 -1.3690195479e+03 -1.2087815804e+03 3.0015560648e+03 2.2500955378e+03 2.0068e+01 0.0000e+00
 -1000011  2    1    2    0    0 -7.8169140296e+02 +1.3690195479e+03 +3.2618065320e+01 2.7476054214e+03 2.2501145841e+03 5.2626e+02 0.0000e+00
       11  1    3    3    0    0 -4.9318386416e-02 -9.0540746857e-02 -8.7827216075e-02 1.3543932467e-01 5.1100000000e-04 0.0000e+00 1.0000e+00
  1000022  1    3    3    0    0 +7.8174072134e+02 -1.3689290072e+03 -1.2086937532e+03 3.0014206255e+03 2.2500000000e+03 0.0000e+00 0.0000e+00
      -11  1    4    4    0    0 -5.2566028039e-02 -5.1632869053e-02 -3.7370893508e-02 8.2619518277e-02 5.1100000000e-04 0.0000e+00 -1.0000e+00
  1000022  1    4    4    0    0 -7.8163883693e+02 +1.3690711808e+03 +3.2655436214e+01 2.7475228019e+03 2.2500000000e+03 0.0000e+00 0.0000e+00
<mgrwt>
<rscale>  0 0.56275658E+04</rscale>
<asrwt>0</asrwt>
<pdfrwt beam="1">  1        2 0.53271731E+00 0.56275658E+04</pdfrwt>
<pdfrwt beam="2">  1       -2 0.35176907E+00 0.56275658E+04</pdfrwt>
<totfact> 0.90521049E-03</totfact>
</mgrwt>
</event>
<event>
 8      1 +1.2359593e-08 4.60883800e+03 7.81860800e-03 7.89185500e-02
       -2 -1    0    0    0  501 -0.0000000000e+00 +0.0000000000e+00 +2.8390718361e+03 2.8390718361e+03 2.5500000000e-03 0.0000e+00 -1.0000e+00
        2 -1    0    0  501    0 +0.0000000000e+00 -0.0000000000e+00 -1.8704517781e+03 1.8704517781e+03 2.5500000000e-03 0.0000e+00 1.0000e+00
  1000011  2    1    2    0    0 -4.4233932970e+02 +1.2835242920e+02 +2.9243385438e+02 2.3152982123e+03 2.2500999586e+03 4.8074e+02 0.0000e+00
 -1000011  2    1    2    0    0 +4.4233932970e+02 -1.2835242920e+02 +6.7618620363e+02 2.3942254020e+03 2.2500997900e+03 1.1410e+03 0.0000e+00
       11  1    3    3    0    0 +3.9493338339e-02 -2.1862904896e-02 -6.6090336779e-02 8.0036888632e-02 5.1100000000e-04 0.0000e+00 1.0000e+00
  1000022  1    3    3    0    0 -4.4237882304e+02 +1.2837429210e+02 +2.9249994472e+02 2.3152181754e+03 2.2500000000e+03 0.0000e+00 0.0000e+00
      -11  1    4    4    0    0 +4.0322542927e-02 +8.9749999315e-02 +8.1967067263e-03 9.8734070213e-02 5.1100000000e-04 0.0000e+00 -1.0000e+00
  1000022  1    4    4    0    0 +4.4229900716e+02 -1.2844217920e+02 +6.7617800692e+02 2.3941266679e+03 2.2500000000e+03 0.0000e+00 0.0000e+00
<mgrwt>
<rscale>  0 0.46088380E+04</rscale>
<asrwt>0</asrwt>
<pdfrwt beam="1">  1        2 0.28776181E+00 0.46088380E+04</pdfrwt>
<pdfrwt beam="2">  1       -2 0.43678028E+00 0.46088380E+04</pdfrwt>
<totfact> 0.25175221E-02</totfact>
</mgrwt>
</event>
<event>
 8      1 +1.2359593e-08 5.14609400e+03 7.81860800e-03 7.80635800e-02
        2 -1    0    0  501    0 +0.0000000000e+00 +0.0000000000e+00 +3.7394898472e+03 3.7394898472e+03 2.5500000000e-03 0.0000e+00 1.0000e+00
       -2 -1    0    0    0  501 -0.0000000000e+00 -0.0000000000e+00 -1.7704477488e+03 1.7704477488e+03 2.5500000000e-03 0.0000e+00 -1.0000e+00
  1000011  2    1    2    0    0 -1.1141248013e+03 +4.2680954982e+02 +5.9230692701e+02 2.6148055437e+03 2.2500977913e+03 6.9384e+02 0.0000e+00
 -1000011  2    1    2    0    0 +1.1141248013e+03 -4.2680954982e+02 +1.3767351714e+03 2.8951320524e+03 2.2500998653e+03 4.5689e+03 0.0000e+00
       11  1    3    3    0    0 -1.0172254963e-01 -6.3979695781e-02 +2.7398132501e-02 1.2325500748e-01 5.1100000000e-04 0.0000e+00 1.0000e+00
  1000022  1    3    3    0    0 -1.1140230788e+03 +4.2687352951e+02 +5.9227952888e+02 2.6146822886e+03 2.2500000000e+03 0.0000e+00 0.0000e+00
      -11  1    4    4    0    0 +4.8977133815e-02 -5.5633966270e-02 -4.1478237484e-02 8.4938817534e-02 5.1100000000e-04 0.0000e+00 -1.0000e+00
  1000022  1    4    4    0    0 +1.1140758242e+03 -4.2675391585e+02 +1.3767766496e+03 2.8950471135e+03 2.2500000000e+03 0.0000e+00 0.0000e+00
<mgrwt>
<rscale>  0 0.51460942E+04</rscale>
<asrwt>0</asrwt>
<pdfrwt beam="1">  1        2 0.57530612E+00 0.51460942E+04</pdfrwt>
<pdfrwt beam="2">  1       -2 0.27237658E+00 0.51460942E+04</pdfrwt>
<totfact> 0.18344890E-02</totfact>
</mgrwt>
</event>
<event>
 8      1 +1.2359593e-08 5.58806400e+03 7.81860800e-03 7.74368600e-02
       -2 -1    0    0    0  501 -0.0000000000e+00 +0.0000000000e+00 +1.6926527177e+03 1.6926527177e+03 2.5500000000e-03 0.0000e+00 -1.0000e+00
        2 -1    0    0  501    0 +0.0000000000e+00 -0.0000000000e+00 -4.6120591067e+03 4.6120591067e+03 2.5500000000e-03 0.0000e+00 1.0000e+00
  1000011  2    1    2    0    0 +4.6259055222e+02 -1.4045840747e+03 -2.3015983365e+03 3.5421958773e+03 2.2501000619e+03 3.8648e+03 0.0000e+00
 -1000011  2    1    2    0    0 -4.6259055222e+02 +1.4045840747e+03 -6.1780805248e+02 2.7625159471e+03 2.2501024702e+03 8.5155e+02 0.0000e+00
       11  1    3    3    0    0 -4.4061752817e-02 -2.1961166808e-02 -1.6996481511e-01 1.7695205544e-01 5.1100000000e-04 0.0000e+00 1.0000e+00
  1000022  1    3    3    0    0 +4.6263461398e+02 -1.4045621135e+03 -2.3014283717e+03 3.5420189253e+03 2.2500000000e+03 0.0000e+00 0.0000e+00
      -11  1    4    4    0    0 -3.4033216332e-02 -5.1396720888e-02 -3.4877755618e-02 7.0827969902e-02 5.1100000000e-04 0.0000e+00 -1.0000e+00
  1000022  1    4    4    0    0 -4.6255651901e+02 +1.4046354714e+03 -6.1777317473e+02 2.7624451191e+03 2.2500000000e+03 0.0000e+00 0.0000e+00
<mgrwt>
<rscale>  0 0.55880638E+04</rscale>
<asrwt>0</asrwt>
<pdfrwt beam="1">  1        2 0.70954755E+00 0.55880638E+04</pdfrwt>
<pdfrwt beam="2">  1       -2 0.26040811E+00 0.55880638E+04</pdfrwt>
<totfact> 0.36150621E-03</totfact>
</mgrwt>
</event>
<event>
 8      1 +1.2359593e-08 4.58367100e+03 7.81860800e-03 7.89615000e-02
        2 -1    0    0  501    0 +0.0000000000e+00 +0.0000000000e+00 +3.1554364610e+03 3.1554364610e+03 2.5500000000e-03 0.0000e+00 1.0000e+00
       -2 -1    0    0    0  501 -0.0000000000e+00 -0.0000000000e+00 -1.6645908514e+03 1.6645908514e+03 2.5500000000e-03 0.0000e+00 -1.0000e+00
  1000011  2    1    2    0    0 -1.4073343974e+02 +3.9140812205e+02 +6.1015552547e+02 2.3681731780e+03 2.2500996015e+03 2.8640e+02 0.0000e+00
 -1000011  2    1    2    0    0 +1.4073343974e+02 -3.9140812205e+02 +8.8069008414e+02 2.4518541344e+03 2.2501038761e+03 1.3311e+03 0.0000e+00
       11  1    3    3    0    0 +5.7379940033e-02 +9.1398331191e-02 +7.0621038327e-03 1.0814918617e-01 5.1100000000e-04 0.0000e+00 1.0000e+00
  1000022  1    3    3    0    0 -1.4079081968e+02 +3.9131672372e+02 +6.1014846337e+02 2.3680650288e+03 2.2500000000e+03 0.0000e+00 0.0000e+00
      -11  1    4    4    0    0 +9.0662848631e-02 -4.0915228439e-02 -1.7084339746e-02 1.0092543436e-01 5.1100000000e-04 0.0000e+00 -1.0000e+00
  1000022  1    4    4    0    0 +1.4064277690e+02 -3.9136720682e+02 +8.8070716848e+02 2.4517532090e+03 2.2500000000e+03 0.0000e+00 0.0000e+00
<mgrwt>
<rscale>  0 0.45836713E+04</rscale>
<asrwt>0</asrwt>
<pdfrwt beam="1">  1        2 0.48545176E+00 0.45836713E+04</pdfrwt>
<pdfrwt beam="2">  1       -2 0.25609090E+00 0.45836713E+04</pdfrwt>
<totfact> 0.61454291E-02</totfact>
</mgrwt>
</event>
<event>
 8      1 +1.2359593e-08 4.85516000e+03 7.81860800e-03 7.85124700e-02
       -2 -1    0    0    0  501 -0.0000000000e+00 +0.0000000000e+00 +1.9881063793e+03 1.9881063793e+03 2.5500000000e-03 0.0000e+00 1.0000e+00
        2 -1    0    0  501    0 +0.0000000000e+00 -0.0000000000e+00 -2.9641998844e+03 2.9641998844e+03 2.5500000000e-03 0.0000e+00 -1.0000e+00
  1000011  2    1    2    0    0 +3.6527879241e+02 +4.3876888096e+02 -1.2123370769e+03 2.6189048443e+03 2.2501010351e+03 1.8932e+03 0.0000e+00
 -1000011  2    1    2    0    0 -3.6527879241e+02 -4.3876888096e+02 +2.3624357184e+02 2.3334014195e+03 2.2501120932e+03 4.2058e+03 0.0000e+00
       11  1    3    3    0    0 +5.6965664724e-02 +3.4868205371e-02 +4.4238378494e-02 8.0113505444e-02 5.1100000000e-04 0.0000e+00 1.0000e+00
  1000022  1    3    3    0    0 +3.6522182675e+02 +4.3873401275e+02 -1.2123813153e+03 2.6188247307e+03 2.2500000000e+03 0.0000e+00 0.0000e+00
      -11  1    4    4    0    0 -1.2024695243e-01 +2.2815667381e-02 +2.7178850163e-02 1.2537477818e-01 5.1100000000e-04 0.0000e+00 -1.0000e+00
  1000022  1    4    4    0    0 -3.6515854546e+02 -4.3879169663e+02 +2.3621639299e+02 2.3332760447e+03 2.2500000000e+03 0.0000e+00 0.0000e+00
<mgrwt>
<rscale>  0 0.48551600E+04</rscale>
<asrwt>0</asrwt>
<pdfrwt beam="1">  1        2 0.45603075E+00 0.48551600E+04</pdfrwt>
<pdfrwt beam="2">  1       -2 0.30586252E+00 0.48551600E+04</pdfrwt>
<totfact> 0.39484023E-02</totfact>
</mgrwt>
</event>
<event>
 8      1 +1.2359593e-08 5.18928200e+03 7.81860800e-03 7.79995400e-02
       -1 -1    0    0    0  501 -0.0000000000e+00 +0.0000000000e+00 +1.9494044708e+03 1.9494044708e+03 5.0400000000e-03 0.0000e+00 -1.0000e+00
        1 -1    0    0  501    0 +0.0000000000e+00 -0.0000000000e+00 -3.4534447623e+03 3.4534447623e+03 5.0400000000e-03 0.0000e+00 1.0000e+00
  1000011  2    1    2    0    0 -1.0172598344e+03 -2.4136148691e+02 -1.5422926600e+03 2.9214195199e+03 2.2501005364e+03 3.9745e+03 0.0000e+00
 -1000011  2    1    2    0    0 +1.0172598344e+03 +2.4136148691e+02 +3.8252368444e+01 2.4814297132e+03 2.2501016066e+03 3.7220e+03 0.0000e+00
       11  1    3    3    0    0 +5.7111007400e-02 -3.3842832647e-03 -8.5784054634e-02 1.0311297301e-01 5.1100000000e-04 0.0000e+00 1.0000e+00
  1000022  1    3    3    0    0 -1.0173169454e+03 -2.4135810263e+02 -1.5422068759e+03 2.9213164069e+03 2.2500000000e+03 0.0000e+00 0.0000e+00
      -11  1    4    4    0    0 +5.3149204749e-02 +1.1089891781e-01 -1.8864908753e-02 1.2441685493e-01 5.1100000000e-04 0.0000e+00 -1.0000e+00
  1000022  1    4    4    0    0 +1.0172066852e+03 +2.4125058800e+02 +3.8271233353e+01 2.4813052964e+03 2.2500000000e+03 0.0000e+00 0.0000e+00
<mgrwt>
<rscale>  0 0.51892815E+04</rscale>
<asrwt>0</asrwt>
<pdfrwt beam="1">  1        1 0.53129919E+00 0.51892815E+04</pdfrwt>
<pdfrwt beam="2">  1       -1 0.29990838E+00 0.51892815E+04</pdfrwt>
<totfact> 0.63883677E-03</totfact>
</mgrwt>
</event>
<event>
 8      1 +1.2359593e-08 5.39553900e+03 7.81860800e-03 7.77022900e-02
       -2 -1    0    0    0  501 -0.0000000000e+00 +0.0000000000e+00 +1.8164618331e+03 1.8164618331e+03 2.5500000000e-03 0.0000e+00 1.0000e+00
        2 -1    0    0  501    0 +0.0000000000e+00 -0.0000000000e+00 -4.0066677202e+03 4.0066677202e+03 2.5500000000e-03 0.0000e+00 -1.0000e+00
  1000011  2    1    2    0    0 -1.3791982790e+03 -3.3799908711e+02 -6.1416020218e+02 2.7306737686e+03 2.2501011535e+03 6.2729e+02 0.0000e+00
 -1000011  2    1    2    0    0 +1.3791982790e+03 +3.3799908711e+02 -1.5760456849e+03 3.0924557846e+03 2.2500958876e+03 5.1972e+03 0.0000e+00
       11  1    3    3    0    0 -4.3436020584e-02 -1.1418344457e-01 -1.8205818949e-02 1.2351623168e-01 5.1100000000e-04 0.0000e+00 1.0000e+00
  1000022  1    3    3    0    0 -1.3791548430e+03 -3.3788490366e+02 -6.1414199637e+02 2.7305502524e+03 2.2500000000e+03 0.0000e+00 0.0000e+00
      -11  1    4    4    0    0 +2.6082714291e-02 -7.0973196880e-02 -9.7310596598e-02 1.2323601528e-01 5.1100000000e-04 0.0000e+00 -1.0000e+00
  1000022  1    4    4    0    0 +1.3791721963e+03 +3.3807006030e+02 -1.5759483743e+03 3.0923325486e+03 2.2500000000e+03 0.0000e+00 0.0000e+00
<mgrwt>
<rscale>  0 0.53955385E+04</rscale>
<asrwt>0</asrwt>
<pdfrwt beam="1">  1        2 0.61641042E+00 0.53955385E+04</pdfrwt>
<pdfrwt beam="2">  1       -2 0.27945567E+00 0.53955385E+04</pdfrwt>
<totfact> 0.10066210E-02</totfact>
</mgrwt>
</event>
<event>
 8      1 +1.2359593e-08 5.12997300e+03 7.81860800e-03 7.80876500e-02
        2 -1    0    0  501    0 +0.0000000000e+00 +0.0000000000e+00 +3.7158138267e+03 3.7158138267e+03 2.5500000000e-03 0.0000e+00 1.0000e+00
       -2 -1    0    0    0  501 -0.0000000000e+00 -0.0000000000e+00 -1.7705826364e+03 1.7705826364e+03 2.5500000000e-03 0.0000e+00 -1.0000e+00
  1000011  2    1    2    0    0 +5.1424000983e+02 -1.1009992614e+03 +1.1853860718e+03 2.8186399002e+03 2.2500996837e+03 3.0508e+02 0.0000e+00
 -1000011  2    1    2    0    0 -5.1424000983e+02 +1.1009992614e+03 +7.5984511859e+02 2.6677565630e+03 2.2500929567e+03 3.1765e+02 0.0000e+00
       11  1    3    3    0    0 -7.2615695177e-02 -7.3162914396e-02 +6.8087786257e-02 1.2353970455e-01 5.1100000000e-04 0.0000e+00 1.0000e+00
  1000022  1    3    3    0    0 +5.1431262553e+02 -1.1009260984e+03 +1.1853179840e+03 2.8185163605e+03 2.2500000000e+03 0.0000e+00 0.0000e+00
      -11  1    4    4    0    0 +5.3771150508e-03 +1.3514561295e-01 +8.3141499795e-03 1.3550880290e-01 5.1100000000e-04 0.0000e+00 -1.0000e+00
  1000022  1    4    4    0    0 -5.1424538695e+02 +1.1008641157e+03 +7.5983680444e+02 2.6676210542e+03 2.2500000000e+03 0.0000e+00 0.0000e+00
<mgrwt>
<rscale>  0 0.51299729E+04</rscale>
<asrwt>0</asrwt>
<pdfrwt beam="1">  1        2 0.57166366E+00 0.51299729E+04</pdfrwt>
<pdfrwt beam="2">  1       -2 0.27239733E+00 0.51299729E+04</pdfrwt>
<totfact> 0.19126749E-02</totfact>
</mgrwt>
</event>
<event>
 8      1 +1.2359593e-08 4.62470200e+03 7.81860800e-03 7.88916200e-02
        1 -1    0    0  501    0 +0.0000000000e+00 +0.0000000000e+00 +2.1875669501e+03 2.1875669501e+03 5.0400000000e-03 0.0000e+00 1.0000e+00
       -1 -1    0    0    0  501 -0.0000000000e+00 -0.0000000000e+00 -2.4442529138e+03 2.4442529138e+03 5.0400000000e-03 0.0000e+00 -1.0000e+00
  1000011  2    1    2    0    0 +4.1062498543e+02 -1.1317521152e+02 -4.4914577278e+02 2.3336885321e+03 2.2500997161e+03 1.5093e+03 0.0000e+00
 -1000011  2    1    2    0    0 -4.1062498543e+02 +1.1317521152e+02 +1.9245980909e+02 2.2981313318e+03 2.2500989607e+03 5.7087e+02 0.0000e+00
       11  1    3    3    0    0 -2.6897037380e-02 +9.7670015153e-03 +7.1642440235e-02 7.7147554137e-02 5.1100000000e-04 0.0000e+00 1.0000e+00
  1000022  1    3    3    0    0 +4.1065188247e+02 -1.1318497852e+02 -4.4921741522e+02 2.3336113845e+03 2.2500000000e+03 0.0000e+00 0.0000e+00
      -11  1    4    4    0    0 -1.4569860875e-02 -4.2899796655e-02 -7.8677982726e-02 9.0791844748e-02 5.1100000000e-04 0.0000e+00 -1.0000e+00
  1000022  1    4    4    0    0 -4.1061041557e+02 +1.1321811132e+02 +1.9253848707e+02 2.2980405399e+03 2.2500000000e+03 0.0000e+00 0.0000e+00
<mgrwt>
<rscale>  0 0.46247019E+04</rscale>
<asrwt>0</asrwt>
<pdfrwt beam="1">  1        1 0.33654876E+00 0.46247019E+04</pdfrwt>
<pdfrwt beam="2">  1       -1 0.37603891E+00 0.46247019E+04</pdfrwt>
<totfact> 0.17194421E-02</totfact>
</mgrwt>
</event>
<event>
 8      1 +1.2359593e-08 5.21612400e+03 7.81860800e-03 7.79600600e-02
        2 -1    0    0  501    0 +0.0000000000e+00 +0.0000000000e+00 +2.4293590467e+03 2.4293590467e+03 2.5500000000e-03 0.0000e+00 1.0000e+00
       -2 -1    0    0    0  501 -0.0000000000e+00 -0.0000000000e+00 -2.7999105878e+03 2.7999105878e+03 2.5500000000e-03 0.0000e+00 -1.0000e+00
  1000011  2    1    2    0    0 -8.9244174006e+02 -6.8750783707e+02 +5.0195233372e+02 2.5659392537e+03 2.2501041804e+03 5.0679e+02 0.0000e+00
 -1000011  2    1    2    0    0 +8.9244174006e+02 +6.8750783707e+02 -8.7250387485e+02 2.6633303807e+03 2.2500992022e+03 2.5932e+03 0.0000e+00
       11  1    3    3    0    0 -8.1334625265e-02 +1.3485562175e-02 +1.1013320482e-01 1.3757457962e-01 5.1100000000e-04 0.0000e+00 1.0000e+00
  1000022  1    3    3    0    0 -8.9236040544e+02 -6.8752132263e+02 +5.0184220052e+02 2.5658016791e+03 2.2500000000e+03 0.0000e+00 0.0000e+00
      -11  1    4    4    0    0 +8.1661561222e-02 +1.1988010616e-01 -9.4299838687e-02 1.7301032024e-01 5.1100000000e-04 0.0000e+00 -1.0000e+00
  1000022  1    4    4    0    0 +8.9236007850e+02 +6.8738795696e+02 -8.7240957501e+02 2.6631573704e+03 2.2500000000e+03 0.0000e+00 0.0000e+00
<mgrwt>
<rscale>  0 0.52161243E+04</rscale>
<asrwt>0</asrwt>
<pdfrwt beam="1">  1        2 0.37374754E+00 0.52161243E+04</pdfrwt>
<pdfrwt beam="2">  1       -2 0.43075548E+00 0.52161243E+04</pdfrwt>
<totfact> 0.12765649E-02</totfact>
</mgrwt>
</event>
<event>
 8      1 +1.2359593e-08 5.32649800e+03 7.81860800e-03 7.78002500e-02
       -2 -1    0    0    0  501 -0.0000000000e+00 +0.0000000000e+00 +1.7715923575e+03 1.7715923575e+03 2.5500000000e-03 0.0000e+00 -1.0000e+00
        2 -1    0    0  501    0 +0.0000000000e+00 -0.0000000000e+00 -4.0036828749e+03 4.0036828749e+03 2.5500000000e-03 0.0000e+00 1.0000e+00
  1000011  2    1    2    0    0 +1.8475333842e+02 +1.2780138212e+03 -1.7688345826e+03 3.1399342123e+03 2.2501017652e+03 5.9904e+02 0.0000e+00
 -1000011  2    1    2    0    0 -1.8475333842e+02 -1.2780138212e+03 -4.6325593482e+02 2.6353410201e+03 2.2501029105e+03 1.6627e+03 0.0000e+00
       11  1    3    3    0    0 +7.6147502394e-02 +9.6901796638e-02 -1.8037215529e-01 2.1845543146e-01 5.1100000000e-04 0.0000e+00 1.0000e+00
  1000022  1    3    3    0    0 +1.8467719092e+02 +1.2779169194e+03 -1.7686542105e+03 3.1397157569e+03 2.2500000000e+03 0.0000e+00 0.0000e+00
      -11  1    4    4    0    0 +8.8230212045e-02 -6.4464982063e-02 +1.5023876531e-02 1.1030086917e-01 5.1100000000e-04 0.0000e+00 -1.0000e+00
  1000022  1    4    4    0    0 -1.8484156864e+02 -1.2779493562e+03 -4.6327095869e+02 2.6352307193e+03 2.2500000000e+03 0.0000e+00 0.0000e+00
<mgrwt>
<rscale>  0 0.53264975E+04</rscale>
<asrwt>0</asrwt>
<pdfrwt beam="1">  1        2 0.61595121E+00 0.53264975E+04</pdfrwt>
<pdfrwt beam="2">  1       -2 0.27255267E+00 0.53264975E+04</pdfrwt>
<totfact> 0.11215522E-02</totfact>
</mgrwt>
</event>
<event>
 8      1 +1.2359593e-08 5.02420900e+03 7.81860800e-03 7.82478400e-02
       -2 -1    0    0    0  501 -0.0000000000e+00 +0.0000000000e+00 +1.5223915922e+03 1.5223915922e+03 2.5500000000e-03 0.0000e+00 1.0000e+00
        2 -1    0    0  501    0 +0.0000000000e+00 -0.0000000000e+00 -4.1452343510e+03 4.1452343510e+03 2.5500000000e-03 0.0000e+00 -1.0000e+00
  1000011  2    1    2    0    0 -1.0497023998e+03 -3.2943395207e+02 -1.5293170972e+03 2.9346515559e+03 2.2501038006e+03 1.3749e+03 0.0000e+00
 -1000011  2    1    2    0    0 +1.0497023998e+03 +3.2943395207e+02 -1.0935256616e+03 2.7329743874e+03 2.2500997250e+03 3.7864e+02 0.0000e+00
       11  1    3    3    0    0 -4.9259303428e-02 +7.0684167703e-02 +5.6237064840e-03 8.6340125485e-02 5.1100000000e-04 0.0000e+00 1.0000e+00
  1000022  1    3    3    0    0 -1.0496531405e+03 -3.2950463624e+02 -1.5293227209e+03 2.9345652157e+03 2.2500000000e+03 0.0000e+00 0.0000e+00
      -11  1    4    4    0    0 +6.7550442835e-02 -1.8975672328e-02 -1.5035506721e-01 1.6592180441e-01 5.1100000000e-04 0.0000e+00 -1.0000e+00
  1000022  1    4    4    0    0 +1.0496348494e+03 +3.2945292774e+02 -1.0933753065e+03 2.7328084656e+03 2.2500000000e+03 0.0000e+00 0.0000e+00
<mgrwt>
<rscale>  0 0.50242094E+04</rscale>
<asrwt>0</asrwt>
<pdfrwt beam="1">  1        2 0.63772835E+00 0.50242094E+04</pdfrwt>
<pdfrwt beam="2">  1       -2 0.23421409E+00 0.50242094E+04</pdfrwt>
<totfact> 0.15065060E-02</totfact>
</mgrwt>
</event>
<event>
 8      1 +1.2359593e-08 4.83075000e+03 7.81860800e-03 7.85515900e-02
        2 -1    0    0  501    0 +0.0000000000e+00 +0.0000000000e+00 +3.5994137066e+03 3.5994137066e+03 2.5500000000e-03 0.0000e+00 1.0000e+00
       -2 -1    0    0    0  501 -0.0000000000e+00 -0.0000000000e+00 -1.6208294877e+03 1.6208294877e+03 2.5500000000e-03 0.0000e+00 -1.0000e+00
  1000011  2    1    2    0    0 -7.8026352109e+02 -2.3029870911e+02 +1.3464613023e+03 2.7454959581e+03 2.2500980778e+03 3.7119e+02 0.0000e+00
 -1000011  2    1    2    0    0 +7.8026352109e+02 +2.3029870911e+02 +6.3212291666e+02 2.4747472362e+03 2.2500990742e+03 1.4879e+03 0.0000e+00
       11  1    3    3    0    0 +1.3230354334e-02 +1.0749242698e-03 +1.4902190812e-01 1.4961279249e-01 5.1100000000e-04 0.0000e+00 1.0000e+00
  1000022  1    3    3    0    0 -7.8027675144e+02 -2.3029978403e+02 +1.3463122804e+03 2.7453463453e+03 2.2500000000e+03 0.0000e+00 0.0000e+00
      -11  1    4    4    0    0 -3.6953291657e-02 -6.1993388770e-02 -1.8106585120e-03 7.2196017998e-02 5.1100000000e-04 0.0000e+00 -1.0000e+00
  1000022  1    4    4    0    0 +7.8030047438e+02 +2.3036070250e+02 +6.3212472731e+02 2.4746750402e+03 2.2500000000e+03 0.0000e+00 0.0000e+00
<mgrwt>
<rscale>  0 0.48307498E+04</rscale>
<asrwt>0</asrwt>
<pdfrwt beam="1">  1        2 0.55375595E+00 0.48307498E+04</pdfrwt>
<pdfrwt beam="2">  1       -2 0.24935838E+00 0.48307498E+04</pdfrwt>
<totfact> 0.32988878E-02</totfact>
</mgrwt>
</event>
<event>
 8      1 +1.2359593e-08 4.60278600e+03 7.81860800e-03 7.89288500e-02
        2 -1    0    0  501    0 +0.0000000000e+00 +0.0000000000e+00 +2.1277549812e+03 2.1277549812e+03 2.5500000000e-03 0.0000e+00 1.0000e+00
       -2 -1    0    0    0  501 -0.0000000000e+00 -0.0000000000e+00 -2.4892009373e+03 2.4892009373e+03 2.5500000000e-03 0.0000e+00 -1.0000e+00
  1000011  2    1    2    0    0 +2.9473979431e+02 +2.4407128772e+02 +1.1517551217e+02 2.2852997026e+03 2.2500859967e+03 1.1558e+03 0.0000e+00
 -1000011  2    1    2    0    0 -2.9473979431e+02 -2.4407128772e+02 -4.7662146827e+02 2.3316562159e+03 2.2501134072e+03 7.4340e+02 0.0000e+00
       11  1    3    3    0    0 -6.5999295741e-02 -4.9547776181e-03 -3.3016150593e-02 7.3964746767e-02 5.1100000000e-04 0.0000e+00 1.0000e+00
  1000022  1    3    3    0    0 +2.9480579361e+02 +2.4407624250e+02 +1.1520852832e+02 2.2852257379e+03 2.2500000000e+03 0.0000e+00 0.0000e+00
      -11  1    4    4    0    0 -9.4729235593e-02 +6.6422090955e-02 -4.1712210701e-02 1.2298655020e-01 5.1100000000e-04 0.0000e+00 -1.0000e+00
  1000022  1    4    4    0    0 -2.9464506508e+02 -2.4413770981e+02 -4.7657975606e+02 2.3315332294e+03 2.2500000000e+03 0.0000e+00 0.0000e+00
<mgrwt>
<rscale>  0 0.46027860E+04</rscale>
<asrwt>0</asrwt>
<pdfrwt beam="1">  1        2 0.32734692E+00 0.46027860E+04</pdfrwt>
<pdfrwt beam="2">  1       -2 0.38295399E+00 0.46027860E+04</pdfrwt>
<totfact> 0.40824881E-02</totfact>
</mgrwt>
</event>
<event>
 8      1 +1.2359593e-08 4.55861300e+03 7.81860800e-03 7.90045500e-02
        2 -1    0    0  501    0 +0.0000000000e+00 +0.0000000000e+00 +1.5010438067e+03 1.5010438067e+03 2.5500000000e-03 0.0000e+00 1.0000e+00
       -2 -1    0    0    0  501 -0.0000000000e+00 -0.0000000000e+00 -3.4610838505e+03 3.4610838505e+03 2.5500000000e-03 0.0000e+00 -1.0000e+00
  1000011  2    1    2    0    0 -3.9146650318e+00 -2.9979513198e+02 -7.5587208695e+02 2.3925261658e+03 2.2500991970e+03 2.3410e+02 0.0000e+00
 -1000011  2    1    2    0    0 +3.9146650318e+00 +2.9979513198e+02 -1.2041679569e+03 2.5696014915e+03 2.2500975337e+03 9.3342e+02 0.0000e+00
       11  1    3    3    0    0 +9.2186871675e-02 -2.2270659404e-03 -6.9158569823e-02 1.1526728832e-01 5.1100000000e-04 0.0000e+00 1.0000e+00
  1000022  1    3    3    0    0 -4.0068519034e+00 -2.9979290491e+02 -7.5580292838e+02 2.3924108985e+03 2.2500000000e+03 0.0000e+00 0.0000e+00
      -11  1    4    4    0    0 -9.6066669053e-02 +2.7761953012e-02 -5.9916554913e-02 1.1657523430e-01 5.1100000000e-04 0.0000e+00 -1.0000e+00
  1000022  1    4    4    0    0 +4.0107317008e+00 +2.9976737003e+02 -1.2041080403e+03 2.5694849162e+03 2.2500000000e+03 0.0000e+00 0.0000e+00
<mgrwt>
<rscale>  0 0.45586132E+04</rscale>
<asrwt>0</asrwt>
<pdfrwt beam="1">  1        2 0.23092982E+00 0.45586132E+04</pdfrwt>
<pdfrwt beam="2">  1       -2 0.53247444E+00 0.45586132E+04</pdfrwt>
<totfact> 0.10192526E-02</totfact>
</mgrwt>
</event>
<event>
 8      1 +1.2359593e-08 4.87579700e+03 7.81860800e-03 7.84795800e-02
        2 -1    0    0  501    0 +0.0000000000e+00 +0.0000000000e+00 +1.7872576773e+03 1.7872576773e+03 2.5500000000e-03 0.0000e+00 1.0000e+00
       -2 -1    0    0    0  501 -0.0000000000e+00 -0.0000000000e+00 -3.3254013268e+03 3.3254013268e+03 2.5500000000e-03 0.0000e+00 -1.0000e+00
  1000011  2    1    2    0    0 +2.0135097742e+02 +5.2979772595e+02 +1.5027795715e+01 2.3204334204e+03 2.2501016816e+03 1.1494e+03 0.0000e+00
 -1000011  2    1    2    0    0 -2.0135097742e+02 -5.2979772595e+02 -1.5531714452e+03 2.7922255836e+03 2.2501009589e+03 2.6083e+02 0.0000e+00
       11  1    3    3    0    0 +6.0060782266e-02 +9.3640381103e-02 -5.6608507955e-02 1.2482228331e-01 5.1100000000e-04 0.0000e+00 1.0000e+00
  1000022  1    3    3    0    0 +2.0129091664e+02 +5.2970408557e+02 +1.5084404223e+01 2.3203085981e+03 2.2500000000e+03 0.0000e+00 0.0000e+00
      -11  1    4    4    0    0 +2.6823247496e-02 -1.0731160518e-01 -1.3658207165e-01 1.7575605410e-01 5.1100000000e-04 0.0000e+00 -1.0000e+00
  1000022  1    4    4    0    0 -2.0137780067e+02 -5.2969041435e+02 -1.5530348631e+03 2.7920498276e+03 2.2500000000e+03 0.0000e+00 0.0000e+00
<mgrwt>
<rscale>  0 0.48757970E+04</rscale>
<asrwt>0</asrwt>
<pdfrwt beam="1">  1        2 0.27496272E+00 0.48757970E+04</pdfrwt>
<pdfrwt beam="2">  1       -2 0.51160020E+00 0.48757970E+04</pdfrwt>
<totfact> 0.90979641E-03</totfact>
</mgrwt>
</event>
<event>
 8      1 +1.2359593e-08 4.94914500e+03 7.81860800e-03 7.83640000e-02
        2 -1    0    0  501    0 +0.0000000000e+00 +0.0000000000e+00 +3.2875599186e+03 3.2875599186e+03 2.5500000000e-03 0.0000e+00 1.0000e+00
       -2 -1    0    0    0  501 -0.0000000000e+00 -0.0000000000e+00 -1.8626307279e+03 1.8626307279e+03 2.5500000000e-03 0.0000e+00 -1.0000e+00
  1000011  2    1    2    0    0 -1.6738600636e+02 +3.9230972580e+01 +1.7690944840e+03 2.8674380724e+03 2.2500997003e+03 1.8669e+03 0.0000e+00
 -1000011  2    1    2    0    0 +1.6738600636e+02 -3.9230972580e+01 -3.4416529332e+02 2.2827525741e+03 2.2501005358e+03 2.1582e+03 0.0000e+00
       11  1    3    3    0    0 -8.1204321740e-02 +6.3459599918e-02 +4.9229768353e-02 1.1421512039e-01 5.1100000000e-04 0.0000e+00 1.0000e+00
  1000022  1    3    3    0    0 -1.6730480204e+02 +3.9167512981e+01 +1.7690452542e+03 2.8673238573e+03 2.2500000000e+03 0.0000e+00 0.0000e+00
      -11  1    4    4    0    0 -8.5333083078e-02 +3.4643171269e-02 -2.9388692640e-02 9.6673885625e-02 5.1100000000e-04 0.0000e+00 -1.0000e+00
  1000022  1    4    4    0    0 +1.6747133944e+02 -3.9265615752e+01 -3.4413590462e+02 2.2826559003e+03 2.2500000000e+03 0.0000e+00 0.0000e+00
<mgrwt>
<rscale>  0 0.49491454E+04</rscale>
<asrwt>0</asrwt>
<pdfrwt beam="1">  1        2 0.50577844E+00 0.49491454E+04</pdfrwt>
<pdfrwt beam="2">  1       -2 0.28655858E+00 0.49491454E+04</pdfrwt>
<totfact> 0.31832681E-02</totfact>
</mgrwt>
</event>
<event>
 8      1 +1.2359593e-08 5.13785000e+03 7.81860800e-03 7.80758700e-02
       -2 -1    0    0    0  501 -0.0000000000e+00 +0.0000000000e+00 +2.4325561096e+03 2.4325561097e+03 2.5500000000e-03 0.0000e+00 -1.0000e+00
        2 -1    0    0  501    0 +0.0000000000e+00 -0.0000000000e+00 -2.7129387460e+03 2.7129387460e+03 2.5500000000e-03 0.0000e+00 1.0000e+00
  1000011  2    1    2    0    0 +8.5237670690e+01 -5.2005532810e+02 -1.2637840927e+03 2.6339716029e+03 2.2500962573e+03 6.7083e+02 0.0000e+00
 -1000011  2    1    2    0    0 -8.5237670690e+01 +5.2005532810e+02 +9.8340145637e+02 2.5115232528e+03 2.2500994689e+03 5.0360e+01 0.0000e+00
       11  1    3    3    0    0 +6.9475892588e-02 -9.4078425492e-02 -7.6569923996e-02 1.3978863918e-01 5.1100000000e-04 0.0000e+00 1.0000e+00
  1000022  1    3    3    0    0 +8.5168194798e+01 -5.1996124967e+02 -1.2637075228e+03 2.6338318142e+03 2.2500000000e+03 0.0000e+00 0.0000e+00
      -11  1    4    4    0    0 -9.1924433410e-02 +3.8505998060e-02 +9.4041941419e-02 1.3702905161e-01 5.1100000000e-04 0.0000e+00 -1.0000e+00
  1000022  1    4    4    0    0 -8.5145746257e+01 +5.2001682210e+02 +9.8330741443e+02 2.5113862237e+03 2.2500000000e+03 0.0000e+00 0.0000e+00
<mgrwt>
<rscale>  0 0.51378500E+04</rscale>
<asrwt>0</asrwt>
<pdfrwt beam="1">  1        2 0.41737519E+00 0.51378500E+04</pdfrwt>
<pdfrwt beam="2">  1       -2 0.37423940E+00 0.51378500E+04</pdfrwt>
<totfact> 0.20491134E-02</totfact>
</mgrwt>
</event>
<event>
 8      1 +1.2359593e-08 5.45940900e+03 7.81860800e-03 7.76129900e-02
       -2 -1    0    0    0  501 -0.0000000000e+00 +0.0000000000e+00 +2.0027436239e+03 2.0027436239e+03 2.5500000000e-03 0.0000e+00 -1.0000e+00
        2 -1    0    0  501    0 +0.0000000000e+00 -0.0000000000e+00 -3.7205391467e+03 3.7205391467e+03 2.5500000000e-03 0.0000e+00 1.0000e+00
  1000011  2    1    2    0    0 +4.9425550091e+02 +3.2354079817e+01 -2.3935713422e+03 3.3222672183e+03 2.2500978675e+03 5.1999e+02 0.0000e+00
 -1000011  2    1    2    0    0 -4.9425550091e+02 -3.2354079817e+01 +6.7577581944e+02 2.4010155523e+03 2.2500816513e+03 7.4929e+02 0.0000e+00
       11  1    3    3    0    0 -1.1182263963e-02 +7.5546474340e-02 -1.7751926514e-01 1.9325025997e-01 5.1100000000e-04 0.0000e+00 1.0000e+00
  1000022  1    3    3    0    0 +4.9426668317e+02 +3.2278533342e+01 -2.3933938229e+03 3.3220739681e+03 2.2500000000e+03 0.0000e+00 0.0000e+00
      -11  1    4    4    0    0 +2.3032103084e-03 +5.8914302257e-02 +7.6881546662e-02 9.6887731926e-02 5.1100000000e-04 0.0000e+00 -1.0000e+00
  1000022  1    4    4    0    0 -4.9425780412e+02 -3.2412994119e+01 +6.7569893790e+02 2.4009186646e+03 2.2500000000e+03 0.0000e+00 0.0000e+00
<mgrwt>
<rscale>  0 0.54594088E+04</rscale>
<asrwt>0</asrwt>
<pdfrwt beam="1">  1        2 0.57239064E+00 0.54594088E+04</pdfrwt>
<pdfrwt beam="2">  1       -2 0.30811440E+00 0.54594088E+04</pdfrwt>
<totfact> 0.11178178E-02</totfact>
</mgrwt>
</event>
<event>
 8      1 +1.2359593e-08 5.00801700e+03 7.81860800e-03 7.82727200e-02
        2 -1    0    0  501    0 +0.0000000000e+00 +0.0000000000e+00 +3.7598820593e+03 3.7598820593e+03 2.5500000000e-03 0.0000e+00 1.0000e+00
       -2 -1    0    0    0  501 -0.0000000000e+00 -0.0000000000e+00 -1.6676209000e+03 1.6676209000e+03 2.5500000000e-03 0.0000e+00 -1.0000e+00
  1000011  2    1    2    0    0 -5.4855991133e+02 +4.3789741829e+02 +1.9621758064e+03 3.0668798657e+03 2.2500991290e+03 2.9447e+03 0.0000e+00
 -1000011  2    1    2    0    0 +5.4855991133e+02 -4.3789741829e+02 +1.3008535288e+02 2.3606230935e+03 2.2500993457e+03 1.3083e+03 0.0000e+00
       11  1    3    3    0    0 -5.7331872844e-02 -7.4430097108e-02 +8.6199776739e-02 1.2750468857e-01 5.1100000000e-04 0.0000e+00 1.0000e+00
  1000022  1    3    3    0    0 -5.4850257946e+02 +4.3797184839e+02 +1.9620896066e+03 3.0667523610e+03 2.2500000000e+03 0.0000e+00 0.0000e+00
      -11  1    4    4    0    0 -6.0226994697e-02 -3.4420517789e-02 -4.8125446592e-02 8.4429746855e-02 5.1100000000e-04 0.0000e+00 -1.0000e+00
  1000022  1    4    4    0    0 +5.4862013833e+02 -4.3786299778e+02 +1.3013347833e+02 2.3605386638e+03 2.2500000000e+03 0.0000e+00 0.0000e+00
<mgrwt>
<rscale>  0 0.50080167E+04</rscale>
<asrwt>0</asrwt>
<pdfrwt beam="1">  1        2 0.57844340E+00 0.50080167E+04</pdfrwt>
<pdfrwt beam="2">  1       -2 0.25655706E+00 0.50080167E+04</pdfrwt>
<totfact> 0.22371300E-02</totfact>
</mgrwt>
</event>
<event>
 8      1 +1.2359593e-08 4.76764900e+03 7.81860800e-03 7.86538400e-02
        2 -1    0    0  501    0 +0.0000000000e+00 +0.0000000000e+00 +4.0760434322e+03 4.0760434322e+03 2.5500000000e-03 0.0000e+00 -1.0000e+00
       -2 -1    0    0    0  501 -0.0000000000e+00 -0.0000000000e+00 -1.3941507623e+03 1.3941507623e+03 2.5500000000e-03 0.0000e+00 1.0000e+00
  1000011  2    1    2    0    0 +5.5970016247e+02 +1.0475828687e+02 +1.9645711358e+03 3.0408434178e+03 2.2501000808e+03 6.6614e+02 0.0000e+00
 -1000011  2    1    2    0    0 -5.5970016247e+02 -1.0475828687e+02 +7.1732153406e+02 2.4293507766e+03 2.2501014293e+03 7.2221e+02 0.0000e+00
       11  1    3    3    0    0 +1.5253537115e-02 -9.0457371374e-02 +1.2149662790e-01 1.5223960689e-01 5.1100000000e-04 0.0000e+00 1.0000e+00
  1000022  1    3    3    0    0 +5.5968490893e+02 +1.0484874424e+02 +1.9644496392e+03 3.0406911782e+03 2.2500000000e+03 0.0000e+00 0.0000e+00
      -11  1    4    4    0    0 -3.0597162622e-02 +9.3688965348e-02 +5.6645102791e-02 1.1367821554e-01 5.1100000000e-04 0.0000e+00 -1.0000e+00
  1000022  1    4    4    0    0 -5.5966956531e+02 -1.0485197584e+02 +7.1726488896e+02 2.4292370984e+03 2.2500000000e+03 0.0000e+00 0.0000e+00
<mgrwt>
<rscale>  0 0.47676489E+04</rscale>
<asrwt>0</asrwt>
<pdfrwt beam="1">  1        2 0.62708359E+00 0.47676489E+04</pdfrwt>
<pdfrwt beam="2">  1       -2 0.21448474E+00 0.47676489E+04</pdfrwt>
<totfact> 0.23430439E-02</totfact>
</mgrwt>
</event>
<event>
 8      1 +1.2359593e-08 4.87946500e+03 7.81860800e-03 7.84737500e-02
        2 -1    0    0  501    0 +0.0000000000e+00 +0.0000000000e+00 +2.9619649190e+03 2.9619649190e+03 2.5500000000e-03 0.0000e+00 1.0000e+00
       -2 -1    0    0    0  501 -0.0000000000e+00 -0.0000000000e+00 -2.0095766087e+03 2.0095766087e+03 2.5500000000e-03 0.0000e+00 -1.0000e+00
  1000011  2    1    2    0    0 +3.5363513844e+02 +6.8825549449e+02 +1.0254303876e+03 2.5909875852e+03 2.2501012755e+03 9.7654e+02 0.0000e+00
 -1000011  2    1    2    0    0 -3.5363513844e+02 -6.8825549449e+02 -7.3042077312e+01 2.3805539425e+03 2.2500996625e+03 1.7739e+03 0.0000e+00
       11  1    3    3    0    0 +4.7629090506e-02 -3.8625290185e-02 +1.1371004061e-01 1.2919240367e-01 5.1100000000e-04 0.0000e+00 1.0000e+00
  1000022  1    3    3    0    0 +3.5358750935e+02 +6.8829411978e+02 +1.0253166775e+03 2.5908583928e+03 2.2500000000e+03 0.0000e+00 0.0000e+00
      -11  1    4    4    0    0 -4.7144860979e-02 -8.6263106594e-02 -8.3048368425e-02 1.2869053460e-01 5.1100000000e-04 0.0000e+00 -1.0000e+00
  1000022  1    4    4    0    0 -3.5358799358e+02 -6.8816923138e+02 -7.2959028943e+01 2.3804252520e+03 2.2500000000e+03 0.0000e+00 0.0000e+00
<mgrwt>
<rscale>  0 0.48794653E+04</rscale>
<asrwt>0</asrwt>
<pdfrwt beam="1">  1        2 0.45568691E+00 0.48794653E+04</pdfrwt>
<pdfrwt beam="2">  1       -2 0.30916563E+00 0.48794653E+04</pdfrwt>
<totfact> 0.37729927E-02</totfact>
</mgrwt>
</event>
<event>
 8      1 +1.2359593e-08 5.58203000e+03 7.81860800e-03 7.74450200e-02
        2 -1    0    0  501    0 +0.0000000000e+00 +0.0000000000e+00 +4.0172951670e+03 4.0172951670e+03 2.5500000000e-03 0.0000e+00 1.0000e+00
       -2 -1    0    0    0  501 -0.0000000000e+00 -0.0000000000e+00 -1.9390571845e+03 1.9390571845e+03 2.5500000000e-03 0.0000e+00 -1.0000e+00
  1000011  2    1    2    0    0 +1.5322107660e+03 +3.1982585530e+02 +4.7766281471e+02 2.7822781088e+03 2.2501002869e+03 1.2812e+03 0.0000e+00
 -1000011  2    1    2    0    0 -1.5322107660e+03 -3.1982585530e+02 +1.6005751678e+03 3.1740742427e+03 2.2500995581e+03 2.4280e+03 0.0000e+00
       11  1    3    3    0    0 +1.1206563720e-01 -2.8251643085e-02 +1.0786493781e-01 1.5808848064e-01 5.1100000000e-04 0.0000e+00 1.0000e+00
  1000022  1    3    3    0    0 +1.5320987004e+03 +3.1985410695e+02 +4.7755494977e+02 2.7821200203e+03 2.2500000000e+03 0.0000e+00 0.0000e+00
      -11  1    4    4    0    0 -1.3653678497e-01 -9.9879792862e-02 +1.1469984023e-01 2.0438830878e-01 5.1100000000e-04 0.0000e+00 -1.0000e+00
  1000022  1    4    4    0    0 -1.5320742292e+03 -3.1972597551e+02 +1.6004604680e+03 3.1738698544e+03 2.2500000000e+03 0.0000e+00 0.0000e+00
<mgrwt>
<rscale>  0 0.55820301E+04</rscale>
<asrwt>0</asrwt>
<pdfrwt beam="1">  1        2 0.61804541E+00 0.55820301E+04</pdfrwt>
<pdfrwt beam="2">  1       -2 0.29831649E+00 0.55820301E+04</pdfrwt>
<totfact> 0.74558411E-03</totfact>
</mgrwt>
</event>
<event>
 8      1 +1.2359593e-08 4.59909200e+03 7.81860800e-03 7.89351500e-02
       -2 -1    0    0    0  501 -0.0000000000e+00 +0.0000000000e+00 +2.2115400870e+03 2.2115400870e+03 2.5500000000e-03 0.0000e+00 1.0000e+00
        2 -1    0    0  501    0 +0.0000000000e+00 -0.0000000000e+00 -2.3910541577e+03 2.3910541577e+03 2.5500000000e-03 0.0000e+00 -1.0000e+00
  1000011  2    1    2    0    0 -3.0078675523e+02 +2.4814676239e+02 -3.5997861256e+02 2.3118366568e+03 2.2501010285e+03 4.0416e+02 0.0000e+00
 -1000011  2    1    2    0    0 +3.0078675523e+02 -2.4814676239e+02 +1.8046454191e+02 2.2907575879e+03 2.2501007506e+03 4.7926e+02 0.0000e+00
       11  1    3    3    0    0 +6.2815895902e-02 +1.4275544756e-02 +5.3019314506e-02 8.3432224829e-02 5.1100000000e-04 0.0000e+00 1.0000e+00
  1000022  1    3    3    0    0 -3.0084957113e+02 +2.4813248685e+02 -3.6003163188e+02 2.3117532246e+03 2.2500000000e+03 0.0000e+00 0.0000e+00
      -11  1    4    4    0    0 +7.2824271065e-02 +3.8395809276e-02 -5.6595566624e-02 9.9904613349e-02 5.1100000000e-04 0.0000e+00 -1.0000e+00
  1000022  1    4    4    0    0 +3.0071393096e+02 -2.4818515820e+02 +1.8052113748e+02 2.2906576833e+03 2.2500000000e+03 0.0000e+00 0.0000e+00
<mgrwt>
<rscale>  0 0.45990921E+04</rscale>
<asrwt>0</asrwt>
<pdfrwt beam="1">  1        2 0.36785449E+00 0.45990921E+04</pdfrwt>
<pdfrwt beam="2">  1       -2 0.34023694E+00 0.45990921E+04</pdfrwt>
<totfact> 0.54185381E-02</totfact>
</mgrwt>
</event>
<event>
 8      1 +1.2359593e-08 4.56264600e+03 7.81860800e-03 7.89976000e-02
        2 -1    0    0  501    0 +0.0000000000e+00 +0.0000000000e+00 +2.3818848594e+03 2.3818848594e+03 2.5500000000e-03 0.0000e+00 1.0000e+00
       -2 -1    0    0    0  501 -0.0000000000e+00 -0.0000000000e+00 -2.1850068794e+03 2.1850068794e+03 2.5500000000e-03 0.0000e+00 -1.0000e+00
  1000011  2    1    2    0    0 -3.5303283332e+02 +1.1275269712e+02 +3.4057029018e+01 2.2806706474e+03 2.2501007463e+03 8.3396e+02 0.0000e+00
 -1000011  2    1    2    0    0 +3.5303283332e+02 -1.1275269712e+02 +1.6282095093e+02 2.2862210914e+03 2.2501001899e+03 3.4310e+03 0.0000e+00
       11  1    3    3    0    0 +6.9460104190e-03 +9.7340153190e-02 +3.4931710401e-02 1.0365248643e-01 5.1100000000e-04 0.0000e+00 1.0000e+00
  1000022  1    3    3    0    0 -3.5303977933e+02 +1.1265535697e+02 +3.4022097308e+01 2.2805669949e+03 2.2500000000e+03 0.0000e+00 0.0000e+00
      -11  1    4    4    0    0 -4.4306655534e-02 -6.9733769359e-02 -4.1093207118e-02 9.2275624431e-02 5.1100000000e-04 0.0000e+00 -1.0000e+00
  1000022  1    4    4    0    0 +3.5307713997e+02 -1.1268296335e+02 +1.6286204414e+02 2.2861288158e+03 2.2500000000e+03 0.0000e+00 0.0000e+00
<mgrwt>
<rscale>  0 0.45626461E+04</rscale>
<asrwt>0</asrwt>
<pdfrwt beam="1">  1        2 0.36644383E+00 0.45626461E+04</pdfrwt>
<pdfrwt beam="2">  1       -2 0.33615490E+00 0.45626461E+04</pdfrwt>
<totfact> 0.58335328E-02</totfact>
</mgrwt>
</event>
<event>
 8      1 +1.2359593e-08 4.91347000e+03 7.81860800e-03 7.84199600e-02
        2 -1    0    0  501    0 +0.0000000000e+00 +0.0000000000e+00 +2.3979867491e+03 2.3979867491e+03 2.5500000000e-03 0.0000e+00 -1.0000e+00
       -2 -1    0    0    0  501 -0.0000000000e+00 -0.0000000000e+00 -2.5169228527e+03 2.5169228527e+03 2.5500000000e-03 0.0000e+00 1.0000e+00
  1000011  2    1    2    0    0 +1.0687483034e+02 -8.3447735882e+02 -5.7417811258e+02 2.4699001441e+03 2.2501003366e+03 1.3566e+03 0.0000e+00
 -1000011  2    1    2    0    0 -1.0687483034e+02 +8.3447735882e+02 +4.5524200899e+02 2.4450094577e+03 2.2501225011e+03 1.7455e+02 0.0000e+00
       11  1    3    3    0    0 +6.5669859280e-02 +4.4827167883e-02 -3.7017872646e-02 8.7707405552e-02 5.1100000000e-04 0.0000e+00 1.0000e+00
  1000022  1    3    3    0    0 +1.0680916048e+02 -8.3452218599e+02 -5.7414109471e+02 2.4698124367e+03 2.2500000000e+03 0.0000e+00 0.0000e+00
      -11  1    4    4    0    0 +5.6632963175e-02 +1.3981610124e-01 +8.7111166123e-02 1.7419658651e-01 5.1100000000e-04 0.0000e+00 -1.0000e+00
  1000022  1    4    4    0    0 -1.0693146330e+02 +8.3433754272e+02 +4.5515489782e+02 2.4448352611e+03 2.2500000000e+03 0.0000e+00 0.0000e+00
<mgrwt>
<rscale>  0 0.49134703E+04</rscale>
<asrwt>0</asrwt>
<pdfrwt beam="1">  1        2 0.36892104E+00 0.49134703E+04</pdfrwt>
<pdfrwt beam="2">  1       -2 0.38721890E+00 0.49134703E+04</pdfrwt>
<totfact> 0.26282303E-02</totfact>
</mgrwt>
</event>
<event>
 8      1 +1.2359593e-08 5.63020300e+03 7.81860800e-03 7.73802300e-02
        2 -1    0    0  501    0 +0.0000000000e+00 +0.0000000000e+00 +3.3257056586e+03 3.3257056586e+03 2.5500000000e-03 0.0000e+00 1.0000e+00
       -2 -1    0    0    0  501 -0.0000000000e+00 -0.0000000000e+00 -2.3828913604e+03 2.3828913604e+03 2.5500000000e-03 0.0000e+00 -1.0000e+00
  1000011  2    1    2    0    0 -1.0096158936e+03 +4.6708552438e+02 +1.7636475734e+03 3.0677226836e+03 2.2501058999e+03 1.5055e+03 0.0000e+00
 -1000011  2    1    2    0    0 +1.0096158936e+03 -4.6708552438e+02 -8.2083327517e+02 2.6408743355e+03 2.2501015200e+03 1.9901e+02 0.0000e+00
       11  1    3    3    0    0 -3.4072225541e-02 +5.2092350345e-02 +2.0612882256e-01 2.1532273852e-01 5.1100000000e-04 0.0000e+00 1.0000e+00
  1000022  1    3    3    0    0 -1.0095818214e+03 +4.6703343203e+02 +1.7634414445e+03 3.0675073609e+03 2.2500000000e+03 0.0000e+00 0.0000e+00
      -11  1    4    4    0    0 -3.8415918665e-02 -3.9157637016e-02 -9.2395146995e-02 1.0745337254e-01 5.1100000000e-04 0.0000e+00 -1.0000e+00
  1000022  1    4    4    0    0 +1.0096543095e+03 -4.6704636674e+02 -8.2074088002e+02 2.6407668821e+03 2.2500000000e+03 0.0000e+00 0.0000e+00
<mgrwt>
<rscale>  0 0.56302026E+04</rscale>
<asrwt>0</asrwt>
<pdfrwt beam="1">  1        2 0.51164703E+00 0.56302026E+04</pdfrwt>
<pdfrwt beam="2">  1       -2 0.36659867E+00 0.56302026E+04</pdfrwt>
<totfact> 0.90419793E-03</totfact>
</mgrwt>
</event>
<event>
 8      1 +1.2359593e-08 5.30907900e+03 7.81860800e-03 7.78252100e-02
        2 -1    0    0  501    0 +0.0000000000e+00 +0.0000000000e+00 +5.1379238964e+03 5.1379238964e+03 2.5500000000e-03 0.0000e+00 1.0000e+00
       -2 -1    0    0    0  501 -0.0000000000e+00 -0.0000000000e+00 -1.3714838998e+03 1.3714838998e+03 2.5500000000e-03 0.0000e+00 -1.0000e+00
  1000011  2    1    2    0    0 -1.9115514544e+02 -1.2913791974e+03 +1.2351008738e+03 2.8796926739e+03 2.2501011547e+03 1.6252e+03 0.0000e+00
 -1000011  2    1    2    0    0 +1.9115514544e+02 +1.2913791974e+03 +2.5313391228e+03 3.6297151223e+03 2.2501007962e+03 5.2453e+02 0.0000e+00
       11  1    3    3    0    0 +4.1787113944e-02 +3.6770532904e-02 +7.1018845376e-02 9.0233986864e-02 5.1100000000e-04 0.0000e+00 1.0000e+00
  1000022  1    3    3    0    0 -1.9119693256e+02 -1.2914159679e+03 +1.2350298549e+03 2.8796024399e+03 2.2500000000e+03 0.0000e+00 0.0000e+00
      -11  1    4    4    0    0 +3.6872531327e-03 +1.5699943569e-01 +8.8546009300e-02 1.8028609281e-01 5.1100000000e-04 0.0000e+00 -1.0000e+00
  1000022  1    4    4    0    0 +1.9115145819e+02 +1.2912221979e+03 +2.5312505768e+03 3.6295348362e+03 2.2500000000e+03 0.0000e+00 0.0000e+00
<mgrwt>
<rscale>  0 0.53090790E+04</rscale>
<asrwt>0</asrwt>
<pdfrwt beam="1">  1        2 0.79044982E+00 0.53090790E+04</pdfrwt>
<pdfrwt beam="2">  1       -2 0.21099752E+00 0.53090790E+04</pdfrwt>
<totfact> 0.17697493E-03</totfact>
</mgrwt>
</event>
<event>
 8      1 +1.2359593e-08 4.60687500e+03 7.81860800e-03 7.89218900e-02
        2 -1    0    0  501    0 +0.0000000000e+00 +0.0000000000e+00 +3.7551766345e+03 3.7551766345e+03 2.5500000000e-03 0.0000e+00 1.0000e+00
       -2 -1    0    0    0  501 -0.0000000000e+00 -0.0000000000e+00 -1.4129363096e+03 1.4129363096e+03 2.5500000000e-03 0.0000e+00 -1.0000e+00
  1000011  2    1    2    0    0 +2.8023631796e+01 +1.6734083457e+02 +1.6901822345e+03 2.8193005608e+03 2.2501003061e+03 9.2445e+02 0.0000e+00
 -1000011  2    1    2    0    0 -2.8023631796e+01 -1.6734083457e+02 +6.5205809040e+02 2.3488123833e+03 2.2501003489e+03 3.3054e+02 0.0000e+00
       11  1    3    3    0    0 +7.7647833588e-02 -2.6122081928e-02 +1.4373740044e-01 1.6544561069e-01 5.1100000000e-04 0.0000e+00 1.0000e+00
  1000022  1    3    3    0    0 +2.7945983962e+01 +1.6736695665e+02 +1.6900384971e+03 2.8191351152e+03 2.2500000000e+03 0.0000e+00 0.0000e+00
      -11  1    4    4    0    0 -1.0023927573e-01 +4.8233687201e-03 +4.0546294509e-02 1.0823788649e-01 5.1100000000e-04 0.0000e+00 -1.0000e+00
  1000022  1    4    4    0    0 -2.7923392520e+01 -1.6734565794e+02 +6.5201754411e+02 2.3487041455e+03 2.2500000000e+03 0.0000e+00 0.0000e+00
<mgrwt>
<rscale>  0 0.46068755E+04</rscale>
<asrwt>0</asrwt>
<pdfrwt beam="1">  1        2 0.57771948E+00 0.46068755E+04</pdfrwt>
<pdfrwt beam="2">  1       -2 0.21737482E+00 0.46068755E+04</pdfrwt>
<totfact> 0.40843090E-02</totfact>
</mgrwt>
</event>
<event>
 8      1 +1.2359593e-08 5.02607400e+03 7.81860800e-03 7.82449800e-02
        2 -1    0    0  501    0 +0.0000000000e+00 +0.0000000000e+00 +3.0002918579e+03 3.0002918579e+03 2.5500000000e-03 0.0000e+00 1.0000e+00
       -2 -1    0    0    0  501 -0.0000000000e+00 -0.0000000000e+00 -2.1049131781e+03 2.1049131781e+03 2.5500000000e-03 0.0000e+00 -1.0000e+00
  1000011  2    1    2    0    0 -1.6648056834e+02 -1.0367842918e+03 +5.4607682760e+01 2.4836625511e+03 2.2501022691e+03 2.0766e+01 0.0000e+00
 -1000011  2    1    2    0    0 +1.6648056834e+02 +1.0367842918e+03 +8.4077099703e+02 2.6215424849e+03 2.2501003719e+03 8.0934e+02 0.0000e+00
       11  1    3    3    0    0 +2.7275963552e-02 -9.0948631183e-02 +8.9907320305e-02 1.3076398087e-01 5.1100000000e-04 0.0000e+00 1.0000e+00
  1000022  1    3    3    0    0 -1.6650784430e+02 -1.0366933432e+03 +5.4517775440e+01 2.4835317872e+03 2.2500000000e+03 0.0000e+00 0.0000e+00
      -11  1    4    4    0    0 -5.9465086491e-03 -5.1871245977e-02 -2.4127197560e-02 5.7518428315e-02 5.1100000000e-04 0.0000e+00 -1.0000e+00
  1000022  1    4    4    0    0 +1.6648651485e+02 +1.0368361630e+03 +8.4079512422e+02 2.6214849665e+03 2.2500000000e+03 0.0000e+00 0.0000e+00
<mgrwt>
<rscale>  0 0.50260736E+04</rscale>
<asrwt>0</asrwt>
<pdfrwt beam="1">  1        2 0.46158336E+00 0.50260736E+04</pdfrwt>
<pdfrwt beam="2">  1       -2 0.32383280E+00 0.50260736E+04</pdfrwt>
<totfact> 0.28653267E-02</totfact>
</mgrwt>
</event>
<event>
 8      1 +1.2359593e-08 4.84046300e+03 7.81860800e-03 7.85360000e-02
        2 -1    0    0  501    0 +0.0000000000e+00 +0.0000000000e+00 +2.0522337761e+03 2.0522337761e+03 2.5500000000e-03 0.0000e+00 1.0000e+00
       -2 -1    0    0    0  501 -0.0000000000e+00 -0.0000000000e+00 -2.8542166817e+03 2.8542166817e+03 2.5500000000e-03 0.0000e+00 -1.0000e+00
  1000011  2    1    2    0    0 +6.2150667488e+02 +3.8323952620e+02 +1.1725641197e+02 2.3685188528e+03 2.2501087548e+03 9.6564e+02 0.0000e+00
 -1000011  2    1    2    0    0 -6.2150667488e+02 -3.8323952620e+02 -9.1923931750e+02 2.5379316050e+03 2.2501006260e+03 8.2476e+02 0.0000e+00
       11  1    3    3    0    0 +1.3176448098e-01 +4.1181149691e-03 +5.0128068518e-02 1.4103872259e-01 5.1100000000e-04 0.0000e+00 1.0000e+00
  1000022  1    3    3    0    0 +6.2137491040e+02 +3.8323540809e+02 +1.1720628390e+02 2.3683778141e+03 2.2500000000e+03 0.0000e+00 0.0000e+00
      -11  1    4    4    0    0 -4.9901168962e-02 -9.9371288692e-02 -1.0960795806e-01 1.5613758253e-01 5.1100000000e-04 0.0000e+00 -1.0000e+00
  1000022  1    4    4    0    0 -6.2145677371e+02 -3.8314015492e+02 -9.1912970954e+02 2.5377754674e+03 2.2500000000e+03 0.0000e+00 0.0000e+00
<mgrwt>
<rscale>  0 0.48404627E+04</rscale>
<asrwt>0</asrwt>
<pdfrwt beam="1">  1        2 0.31572827E+00 0.48404627E+04</pdfrwt>
<pdfrwt beam="2">  1       -2 0.43911026E+00 0.48404627E+04</pdfrwt>
<totfact> 0.18909348E-02</totfact>
</mgrwt>
</event>
<event>
 8      1 +1.2359593e-08 5.99805800e+03 7.81860800e-03 7.69064300e-02
        2 -1    0    0  501    0 +0.0000000000e+00 +0.0000000000e+00 +4.4120177905e+03 4.4120177905e+03 2.5500000000e-03 0.0000e+00 1.0000e+00
       -2 -1    0    0    0  501 -0.0000000000e+00 -0.0000000000e+00 -2.0385627000e+03 2.0385627000e+03 2.5500000000e-03 0.0000e+00 -1.0000e+00
  1000011  2    1    2    0    0 -1.9568395173e+03 -3.0236915538e+02 +1.0761744041e+03 3.1846113091e+03 2.2500999620e+03 3.3733e+02 0.0000e+00
 -1000011  2    1    2    0    0 +1.9568395173e+03 +3.0236915538e+02 +1.2972806864e+03 3.2659691814e+03 2.2501043335e+03 2.2968e+02 0.0000e+00
       11  1    3    3    0    0 -4.7799245599e-02 +7.3688240978e-02 +8.3579245929e-02 1.2124551908e-01 5.1100000000e-04 0.0000e+00 1.0000e+00
  1000022  1    3    3    0    0 -1.9567917181e+03 -3.0244284362e+02 +1.0760908248e+03 3.1844900636e+03 2.2500000000e+03 0.0000e+00 0.0000e+00
      -11  1    4    4    0    0 +7.9079704907e-02 +9.8981428289e-02 -4.1848822755e-03 1.2676236493e-01 5.1100000000e-04 0.0000e+00 -1.0000e+00
  1000022  1    4    4    0    0 +1.9567604376e+03 +3.0227017395e+02 +1.2972848713e+03 3.2658424190e+03 2.2500000000e+03 0.0000e+00 0.0000e+00
<mgrwt>
<rscale>  0 0.59980580E+04</rscale>
<asrwt>0</asrwt>
<pdfrwt beam="1">  1        2 0.67877196E+00 0.59980580E+04</pdfrwt>
<pdfrwt beam="2">  1       -2 0.31362503E+00 0.59980580E+04</pdfrwt>
<totfact> 0.26114364E-03</totfact>
</mgrwt>
</event>
<event>
 8      1 +1.2359593e-08 6.10676900e+03 7.81860800e-03 7.67730300e-02
        2 -1    0    0  501    0 +0.0000000000e+00 +0.0000000000e+00 +3.3365596816e+03 3.3365596816e+03 2.5500000000e-03 0.0000e+00 1.0000e+00
       -2 -1    0    0    0  501 -0.0000000000e+00 -0.0000000000e+00 -2.7942428230e+03 2.7942428230e+03 2.5500000000e-03 0.0000e+00 -1.0000e+00
  1000011  2    1    2    0    0 -2.7781654921e+02 -1.3385097181e+03 -1.2813477683e+03 2.9280698836e+03 2.2501001844e+03 2.2420e+03 0.0000e+00
 -1000011  2    1    2    0    0 +2.7781654921e+02 +1.3385097181e+03 +1.8236646270e+03 3.2027326210e+03 2.2501007243e+03 5.1115e+02 0.0000e+00
       11  1    3    3    0    0 -3.7729924277e-02 -9.1854464501e-03 -1.4141200501e-01 1.4664765734e-01 5.1100000000e-04 0.0000e+00 1.0000e+00
  1000022  1    3    3    0    0 -2.7777881929e+02 -1.3385005326e+03 -1.2812063563e+03 2.9279232360e+03 2.2500000000e+03 0.0000e+00 0.0000e+00
      -11  1    4    4    0    0 +7.3022198831e-02 +1.0795194336e-01 +1.5967650371e-02 1.3130533229e-01 5.1100000000e-04 0.0000e+00 -1.0000e+00
  1000022  1    4    4    0    0 +2.7774352701e+02 +1.3384017661e+03 +1.8236486593e+03 3.2026013157e+03 2.2500000000e+03 0.0000e+00 0.0000e+00
<mgrwt>
<rscale>  0 0.61067693E+04</rscale>
<asrwt>0</asrwt>
<pdfrwt beam="1">  1        2 0.51331687E+00 0.61067693E+04</pdfrwt>
<pdfrwt beam="2">  1       -2 0.42988351E+00 0.61067693E+04</pdfrwt>
<totfact> 0.33206207E-03</totfact>
</mgrwt>
</event>
<event>
 8      1 +1.2359593e-08 4.66635100e+03 7.81860800e-03 7.88214400e-02
        2 -1    0    0  501    0 +0.0000000000e+00 +0.0000000000e+00 +4.5982112300e+03 4.5982112300e+03 2.5500000000e-03 0.0000e+00 1.0000e+00
       -2 -1    0    0    0  501 -0.0000000000e+00 -0.0000000000e+00 -1.1838749593e+03 1.1838749593e+03 2.5500000000e-03 0.0000e+00 -1.0000e+00
  1000011  2    1    2    0    0 -3.9996047148e+02 -3.9373926360e+02 +2.0248528855e+03 3.0786393108e+03 2.2501092888e+03 2.7473e+02 0.0000e+00
 -1000011  2    1    2    0    0 +3.9996047148e+02 +3.9373926360e+02 +1.3894833852e+03 2.7034468785e+03 2.2501026556e+03 4.8197e+02 0.0000e+00
       11  1    3    3    0    0 +2.8435095089e-02 -9.4828698994e-02 +1.8571616972e-01 2.1045615512e-01 5.1100000000e-04 0.0000e+00 1.0000e+00
  1000022  1    3    3    0    0 -3.9998890657e+02 -3.9364443490e+02 +2.0246671693e+03 3.0784288546e+03 2.2500000000e+03 0.0000e+00 0.0000e+00
      -11  1    4    4    0    0 +3.2875558678e-02 -3.0365135687e-02 -4.4413962793e-02 6.3053190626e-02 5.1100000000e-04 0.0000e+00 -1.0000e+00
  1000022  1    4    4    0    0 +3.9992759592e+02 +3.9376962874e+02 +1.3895277992e+03 2.7033838253e+03 2.2500000000e+03 0.0000e+00 0.0000e+00
<mgrwt>
<rscale>  0 0.46663507E+04</rscale>
<asrwt>0</asrwt>
<pdfrwt beam="1">  1        2 0.70741711E+00 0.46663507E+04</pdfrwt>
<pdfrwt beam="2">  1       -2 0.18213461E+00 0.46663507E+04</pdfrwt>
<totfact> 0.12729463E-02</totfact>
</mgrwt>
</event>
<event>
 8      1 +1.2359593e-08 5.85550800e+03 7.81860800e-03 7.70858000e-02
        1 -1    0    0  501    0 +0.0000000000e+00 +0.0000000000e+00 +3.3721527476e+03 3.3721527476e+03 5.0400000000e-03 0.0000e+00 1.0000e+00
       -1 -1    0    0    0  501 -0.0000000000e+00 -0.0000000000e+00 -2.5419199220e+03 2.5419199220e+03 5.0400000000e-03 0.0000e+00 -1.0000e+00
  1000011  2    1    2    0    0 +1.1172657112e+03 +1.0090714768e+03 +1.5408423508e+03 3.1150691083e+03 2.2501005500e+03 1.5324e+03 0.0000e+00
 -1000011  2    1    2    0    0 -1.1172657112e+03 -1.0090714768e+03 -7.1060952519e+02 2.7990035613e+03 2.2500993588e+03 5.3295e+02 0.0000e+00
       11  1    3    3    0    0 -3.5899882116e-02 +4.6237190227e-02 +1.2140590372e-01 1.3478254163e-01 5.1100000000e-04 0.0000e+00 1.0000e+00
  1000022  1    3    3    0    0 +1.1173016111e+03 +1.0090252396e+03 +1.5407209448e+03 3.1149343258e+03 2.2500000000e+03 0.0000e+00 0.0000e+00
      -11  1    4    4    0    0 -7.1386720512e-02 -1.2377630605e-01 -1.1164963016e-01 1.8133543019e-01 5.1100000000e-04 0.0000e+00 -1.0000e+00
  1000022  1    4    4    0    0 -1.1171943245e+03 -1.0089477004e+03 -7.1049787556e+02 2.7988222259e+03 2.2500000000e+03 0.0000e+00 0.0000e+00
<mgrwt>
<rscale>  0 0.58555076E+04</rscale>
<asrwt>0</asrwt>
<pdfrwt beam="1">  1        1 0.51879273E+00 0.58555076E+04</pdfrwt>
<pdfrwt beam="2">  1       -1 0.39106461E+00 0.58555076E+04</pdfrwt>
<totfact> 0.17477645E-03</totfact>
</mgrwt>
</event>
<event>
 8      1 +1.2359593e-08 5.48915800e+03 7.81860800e-03 7.75718300e-02
       -2 -1    0    0    0  501 -0.0000000000e+00 +0.0000000000e+00 +2.8751037376e+03 2.8751037376e+03 2.5500000000e-03 0.0000e+00 -1.0000e+00
        2 -1    0    0  501    0 +0.0000000000e+00 -0.0000000000e+00 -2.6199799421e+03 2.6199799422e+03 2.5500000000e-03 0.0000e+00 1.0000e+00
  1000011  2    1    2    0    0 -8.2529999404e+02 -4.2773679780e+02 +1.3960947165e+03 2.8064389441e+03 2.2500978293e+03 6.6452e+01 0.0000e+00
 -1000011  2    1    2    0    0 +8.2529999404e+02 +4.2773679780e+02 -1.1409709210e+03 2.6886447356e+03 2.2500926700e+03 5.1738e+01 0.0000e+00
       11  1    3    3    0    0 -1.1510686824e-01 +4.0877227414e-02 +7.5905669547e-02 1.4381401252e-01 5.1100000000e-04 0.0000e+00 1.0000e+00
  1000022  1    3    3    0    0 -8.2518488717e+02 -4.2777767503e+02 +1.3960188108e+03 2.8062951301e+03 2.2500000000e+03 0.0000e+00 0.0000e+00
      -11  1    4    4    0    0 +3.5815233623e-02 +5.8336813291e-02 +4.1673213142e-02 8.0142574540e-02 5.1100000000e-04 0.0000e+00 -1.0000e+00
  1000022  1    4    4    0    0 +8.2526417881e+02 +4.2767846099e+02 -1.1410125942e+03 2.6885645930e+03 2.2500000000e+03 0.0000e+00 0.0000e+00
<mgrwt>
<rscale>  0 0.54891581E+04</rscale>
<asrwt>0</asrwt>
<pdfrwt beam="1">  1        2 0.40307384E+00 0.54891581E+04</pdfrwt>
<pdfrwt beam="2">  1       -2 0.44232365E+00 0.54891581E+04</pdfrwt>
<totfact> 0.81203913E-03</totfact>
</mgrwt>
</event>
<event>
 8      1 +1.2359593e-08 4.80932000e+03 7.81860800e-03 7.85861400e-02
        2 -1    0    0  501    0 +0.0000000000e+00 +0.0000000000e+00 +2.3630828607e+03 2.3630828607e+03 2.5500000000e-03 0.0000e+00 1.0000e+00
       -2 -1    0    0    0  501 -0.0000000000e+00 -0.0000000000e+00 -2.4469683869e+03 2.4469683869e+03 2.5500000000e-03 0.0000e+00 -1.0000e+00
  1000011  2    1    2    0    0 +5.7376260703e+02 +6.2302258129e+02 -8.7532616165e+01 2.4058204212e+03 2.2500998365e+03 8.3795e+02 0.0000e+00
 -1000011  2    1    2    0    0 -5.7376260703e+02 -6.2302258129e+02 +3.6470900039e+00 2.4042308264e+03 2.2501004199e+03 6.9399e+02 0.0000e+00
       11  1    3    3    0    0 +1.5152203558e-02 -5.3244135719e-02 +5.9189193041e-02 8.1044115763e-02 5.1100000000e-04 0.0000e+00 1.0000e+00
  1000022  1    3    3    0    0 +5.7374745482e+02 +6.2307582543e+02 -8.7591805358e+01 2.4057393771e+03 2.2500000000e+03 0.0000e+00 0.0000e+00
      -11  1    4    4    0    0 -6.1235666324e-02 -1.2511874201e-01 +2.2144171726e-02 1.4105010411e-01 5.1100000000e-04 0.0000e+00 -1.0000e+00
  1000022  1    4    4    0    0 -5.7370137136e+02 -6.2289746255e+02 +3.6249458322e+00 2.4040897763e+03 2.2500000000e+03 0.0000e+00 0.0000e+00
<mgrwt>
<rscale>  0 0.48093197E+04</rscale>
<asrwt>0</asrwt>
<pdfrwt beam="1">  1        2 0.36355121E+00 0.48093197E+04</pdfrwt>
<pdfrwt beam="2">  1       -2 0.37645668E+00 0.48093197E+04</pdfrwt>
<totfact> 0.32561432E-02</totfact>
</mgrwt>
</event>
<event>
 8      1 +1.2359593e-08 5.16503100e+03 7.81860800e-03 7.80354200e-02
       -2 -1    0    0    0  501 -0.0000000000e+00 +0.0000000000e+00 +4.1149229060e+03 4.1149229060e+03 2.5500000000e-03 0.0000e+00 -1.0000e+00
        2 -1    0    0  501    0 +0.0000000000e+00 -0.0000000000e+00 -1.6207804846e+03 1.6207804846e+03 2.5500000000e-03 0.0000e+00 1.0000e+00
  1000011  2    1    2    0    0 -1.0133896909e+03 +7.4775564518e+01 +4.0581130748e+02 2.5020330993e+03 2.2500970562e+03 2.5155e+03 0.0000e+00
 -1000011  2    1    2    0    0 +1.0133896909e+03 -7.4775564518e+01 +2.0883311139e+03 3.2336702913e+03 2.2500992558e+03 1.3083e+03 0.0000e+00
       11  1    3    3    0    0 -2.4036648550e-02 +4.1944597890e-02 -7.1865723393e-02 8.6614391507e-02 5.1100000000e-04 0.0000e+00 1.0000e+00
  1000022  1    3    3    0    0 -1.0133656543e+03 +7.4733619920e+01 +4.0588317320e+02 2.5019464849e+03 2.2500000000e+03 0.0000e+00 0.0000e+00
      -11  1    4    4    0    0 +1.2560908172e-01 -2.8262674165e-03 +3.3250854568e-02 1.2996734092e-01 5.1100000000e-04 0.0000e+00 -1.0000e+00
  1000022  1    4    4    0    0 +1.0132640819e+03 -7.4772738251e+01 +2.0882978630e+03 3.2335403240e+03 2.2500000000e+03 0.0000e+00 0.0000e+00
<mgrwt>
<rscale>  0 0.51650312E+04</rscale>
<asrwt>0</asrwt>
<pdfrwt beam="1">  1        2 0.24935085E+00 0.51650312E+04</pdfrwt>
<pdfrwt beam="2">  1       -2 0.63306505E+00 0.51650312E+04</pdfrwt>
<totfact> 0.30302252E-03</totfact>
</mgrwt>
</event>
<event>
 8      1 +1.2359593e-08 4.60743800e+03 7.81860800e-03 7.89209300e-02
        2 -1    0    0  501    0 +0.0000000000e+00 +0.0000000000e+00 +2.4520618215e+03 2.4520618215e+03 2.5500000000e-03 0.0000e+00 1.0000e+00
       -2 -1    0    0    0  501 -0.0000000000e+00 -0.0000000000e+00 -2.1643501263e+03 2.1643501263e+03 2.5500000000e-03 0.0000e+00 -1.0000e+00
  1000011  2    1    2    0    0 +2.9395963470e+02 +9.1179549002e+01 +5.3119010865e+02 2.3323454784e+03 2.2500992249e+03 1.9924e+02 0.0000e+00
 -1000011  2    1    2    0    0 -2.9395963470e+02 -9.1179549002e+01 -2.4347841342e+02 2.2840664694e+03 2.2501004248e+03 5.6578e+02 0.0000e+00
       11  1    3    3    0    0 +5.0849020759e-02 +1.6112313185e-04 +1.1875603280e-01 1.2918554403e-01 5.1100000000e-04 0.0000e+00 1.0000e+00
  1000022  1    3    3    0    0 +2.9390878568e+02 +9.1179387879e+01 +5.3107135262e+02 2.3322162929e+03 2.2500000000e+03 0.0000e+00 0.0000e+00
      -11  1    4    4    0    0 +6.2220965865e-02 +5.6199393753e-03 -7.6622212298e-02 9.8864840055e-02 5.1100000000e-04 0.0000e+00 -1.0000e+00
  1000022  1    4    4    0    0 -2.9402185567e+02 -9.1185168942e+01 -2.4340179120e+02 2.2839676045e+03 2.2500000000e+03 0.0000e+00 0.0000e+00
<mgrwt>
<rscale>  0 0.46074376E+04</rscale>
<asrwt>0</asrwt>
<pdfrwt beam="1">  1        2 0.37724028E+00 0.46074376E+04</pdfrwt>
<pdfrwt beam="2">  1       -2 0.33297694E+00 0.46074376E+04</pdfrwt>
<totfact> 0.55444614E-02</totfact>
</mgrwt>
</event>
<event>
 8      1 +1.2359593e-08 6.24111600e+03 7.81860800e-03 7.66120500e-02
        2 -1    0    0  501    0 +0.0000000000e+00 +0.0000000000e+00 +3.9954947381e+03 3.9954947381e+03 2.5500000000e-03 0.0000e+00 1.0000e+00
       -2 -1    0    0    0  501 -0.0000000000e+00 -0.0000000000e+00 -2.4372157469e+03 2.4372157469e+03 2.5500000000e-03 0.0000e+00 -1.0000e+00
  1000011  2    1    2    0    0 +3.0244611956e+02 -7.0128837240e+02 -1.3057395879e+03 2.7113084750e+03 2.2501019396e+03 6.9788e+02 0.0000e+00
 -1000011  2    1    2    0    0 -3.0244611956e+02 +7.0128837240e+02 +2.8640185791e+03 3.7214020100e+03 2.2501003228e+03 7.5724e+02 0.0000e+00
       11  1    3    3    0    0 +2.8014200510e-02 -5.3428807923e-02 +4.9199473160e-02 7.7847813114e-02 5.1100000000e-04 0.0000e+00 1.0000e+00
  1000022  1    3    3    0    0 +3.0241810536e+02 -7.0123494359e+02 -1.3057887874e+03 2.7112306272e+03 2.2500000000e+03 0.0000e+00 0.0000e+00
      -11  1    4    4    0    0 +2.9724127541e-03 -2.2509097855e-02 -2.7074079849e-02 3.5337814964e-02 5.1100000000e-04 0.0000e+00 -1.0000e+00
  1000022  1    4    4    0    0 -3.0244909197e+02 +7.0131088149e+02 +2.8640456531e+03 3.7213666722e+03 2.2500000000e+03 0.0000e+00 0.0000e+00
<mgrwt>
<rscale>  0 0.62411161E+04</rscale>
<asrwt>0</asrwt>
<pdfrwt beam="1">  1        2 0.61469149E+00 0.62411161E+04</pdfrwt>
<pdfrwt beam="2">  1       -2 0.37495627E+00 0.62411161E+04</pdfrwt>
<totfact> 0.24475145E-03</totfact>
</mgrwt>
</event>
<event>
 8      1 +1.2359593e-08 5.60678200e+03 7.81860800e-03 7.74116500e-02
        2 -1    0    0  501    0 +0.0000000000e+00 +0.0000000000e+00 +3.2046018280e+03 3.2046018280e+03 2.5500000000e-03 0.0000e+00 1.0000e+00
       -2 -1    0    0    0  501 -0.0000000000e+00 -0.0000000000e+00 -2.4524107470e+03 2.4524107470e+03 2.5500000000e-03 0.0000e+00 -1.0000e+00
  1000011  2    1    2    0    0 +4.2955383076e+02 +1.3351527311e+03 -5.4250241723e+02 2.7063647638e+03 2.2501004540e+03 1.3205e+03 0.0000e+00
 -1000011  2    1    2    0    0 -4.2955383076e+02 -1.3351527311e+03 +1.2946934982e+03 2.9506478112e+03 2.2500982073e+03 1.1636e+03 0.0000e+00
       11  1    3    3    0    0 +3.7908377686e-03 +7.6938093843e-02 +7.4473141934e-02 1.0714639637e-01 5.1100000000e-04 0.0000e+00 1.0000e+00
  1000022  1    3    3    0    0 +4.2955003992e+02 +1.3350757930e+03 -5.4257689037e+02 2.7062576174e+03 2.2500000000e+03 0.0000e+00 0.0000e+00
      -11  1    4    4    0    0 +5.3420301078e-02 +1.8335882846e-02 -4.8452669256e-03 5.6689243880e-02 5.1100000000e-04 0.0000e+00 -1.0000e+00
  1000022  1    4    4    0    0 -4.2960725106e+02 -1.3351710670e+03 +1.2946983435e+03 2.9505911220e+03 2.2500000000e+03 0.0000e+00 0.0000e+00
<mgrwt>
<rscale>  0 0.56067816E+04</rscale>
<asrwt>0</asrwt>
<pdfrwt beam="1">  1        2 0.49301567E+00 0.56067816E+04</pdfrwt>
<pdfrwt beam="2">  1       -2 0.37729396E+00 0.56067816E+04</pdfrwt>
<totfact> 0.93100553E-03</totfact>
</mgrwt>
</event>
<event>
 8      1 +1.2359593e-08 4.62267900e+03 7.81860800e-03 7.88950400e-02
        2 -1    0    0  501    0 +0.0000000000e+00 +0.0000000000e+00 +2.8827052152e+03 2.8827052152e+03 2.5500000000e-03 0.0000e+00 1.0000e+00
       -2 -1    0    0    0  501 -0.0000000000e+00 -0.0000000000e+00 -1.8532212561e+03 1.8532212561e+03 2.5500000000e-03 0.0000e+00 -1.0000e+00
  1000011  2    1    2    0    0 -5.0460390289e+02 -1.5711161897e+02 +5.2055003259e+02 2.3692253440e+03 2.2500993832e+03 1.0106e+02 0.0000e+00
 -1000011  2    1    2    0    0 +5.0460390289e+02 +1.5711161897e+02 +5.0893392658e+02 2.3667011274e+03 2.2501002922e+03 3.6168e+02 0.0000e+00
       11  1    3    3    0    0 +4.6391961525e-03 +3.3652380176e-02 +1.1027953113e-01 1.1539428364e-01 5.1100000000e-04 0.0000e+00 1.0000e+00
  1000022  1    3    3    0    0 -5.0460854208e+02 -1.5714527135e+02 +5.2043975306e+02 2.3691099497e+03 2.2500000000e+03 0.0000e+00 0.0000e+00
      -11  1    4    4    0    0 +1.1538019017e-01 -1.0483842918e-02 -1.2612146306e-02 1.1654109198e-01 5.1100000000e-04 0.0000e+00 -1.0000e+00
  1000022  1    4    4    0    0 +5.0448852270e+02 +1.5712210281e+02 +5.0894653873e+02 2.3665845863e+03 2.2500000000e+03 0.0000e+00 0.0000e+00
<mgrwt>
<rscale>  0 0.46226791E+04</rscale>
<asrwt>0</asrwt>
<pdfrwt beam="1">  1        2 0.44349311E+00 0.46226791E+04</pdfrwt>
<pdfrwt beam="2">  1       -2 0.28511096E+00 0.46226791E+04</pdfrwt>
<totfact> 0.60522635E-02</totfact>
</mgrwt>
</event>
<event>
 8      1 +1.2359593e-08 5.38254800e+03 7.81860800e-03 7.77206100e-02
       -2 -1    0    0    0  501 -0.0000000000e+00 +0.0000000000e+00 +1.9367196124e+03 1.9367196124e+03 2.5500000000e-03 0.0000e+00 -1.0000e+00
        2 -1    0    0  501    0 +0.0000000000e+00 -0.0000000000e+00 -3.7398066553e+03 3.7398066553e+03 2.5500000000e-03 0.0000e+00 1.0000e+00
  1000011  2    1    2    0    0 +1.0264515230e+03 -9.1486326890e+02 -1.4689126657e+03 3.0184813051e+03 2.2500994289e+03 2.5761e+02 0.0000e+00
 -1000011  2    1    2    0    0 -1.0264515230e+03 +9.1486326890e+02 -3.3417437721e+02 2.6580449626e+03 2.2501006598e+03 2.8740e+02 0.0000e+00
       11  1    3    3    0    0 +3.6972593061e-02 -9.8954607631e-02 -1.6795749340e-01 1.9841614713e-01 5.1100000000e-04 0.0000e+00 1.0000e+00
  1000022  1    3    3    0    0 +1.0264145504e+03 -9.1476431429e+02 -1.4687447082e+03 3.0182828890e+03 2.2500000000e+03 0.0000e+00 0.0000e+00
      -11  1    4    4    0    0 +3.2749518152e-02 +1.0409699272e-01 -8.4816549221e-03 1.0945736106e-01 5.1100000000e-04 0.0000e+00 -1.0000e+00
  1000022  1    4    4    0    0 -1.0264842726e+03 +9.1475917191e+02 -3.3416589555e+02 2.6579355053e+03 2.2500000000e+03 0.0000e+00 0.0000e+00
<mgrwt>
<rscale>  0 0.53825484E+04</rscale>
<asrwt>0</asrwt>
<pdfrwt beam="1">  1        2 0.57535487E+00 0.53825484E+04</pdfrwt>
<pdfrwt beam="2">  1       -2 0.29795686E+00 0.53825484E+04</pdfrwt>
<totfact> 0.12557127E-02</totfact>
</mgrwt>
</event>
<event>
 8      1 +1.2359593e-08 5.07103000e+03 7.81860800e-03 7.81764300e-02
       -2 -1    0    0    0  501 -0.0000000000e+00 +0.0000000000e+00 +1.8858861500e+03 1.8858861500e+03 2.5500000000e-03 0.0000e+00 -1.0000e+00
        2 -1    0    0  501    0 +0.0000000000e+00 -0.0000000000e+00 -3.4089204878e+03 3.4089204878e+03 2.5500000000e-03 0.0000e+00 1.0000e+00
  1000011  2    1    2    0    0 -4.3108297283e+02 -9.6807104665e+02 -1.2761160268e+03 2.7954242915e+03 2.2500957257e+03 4.4390e+03 0.0000e+00
 -1000011  2    1    2    0    0 +4.3108297283e+02 +9.6807104665e+02 -2.4691831103e+02 2.4993823463e+03 2.2500998600e+03 9.4318e+02 0.0000e+00
       11  1    3    3    0    0 -9.9891791709e-02 -3.8654348123e-03 -9.1692966132e-02 1.3565092119e-01 5.1100000000e-04 0.0000e+00 1.0000e+00
  1000022  1    3    3    0    0 -4.3098308104e+02 -9.6806718121e+02 -1.2760243338e+03 2.7952886406e+03 2.2500000000e+03 0.0000e+00 0.0000e+00
      -11  1    4    4    0    0 +8.1636636989e-02 +4.3772808038e-02 +6.6985785540e-02 1.1431515874e-01 5.1100000000e-04 0.0000e+00 -1.0000e+00
  1000022  1    4    4    0    0 +4.3100133620e+02 +9.6802727384e+02 -2.4698529682e+02 2.4992680312e+03 2.2500000000e+03 0.0000e+00 0.0000e+00
<mgrwt>
<rscale>  0 0.50710298E+04</rscale>
<asrwt>0</asrwt>
<pdfrwt beam="1">  1        2 0.52444931E+00 0.50710298E+04</pdfrwt>
<pdfrwt beam="2">  1       -2 0.29013633E+00 0.50710298E+04</pdfrwt>
<totfact> 0.24813536E-02</totfact>
</mgrwt>
</event>
<event>
 8      1 +1.2359593e-08 5.27497800e+03 7.81860800e-03 7.78743500e-02
       -2 -1    0    0    0  501 -0.0000000000e+00 +0.0000000000e+00 +1.6357167363e+03 1.6357167363e+03 2.5500000000e-03 0.0000e+00 -1.0000e+00
        2 -1    0    0  501    0 +0.0000000000e+00 -0.0000000000e+00 -4.2527823422e+03 4.2527823422e+03 2.5500000000e-03 0.0000e+00 1.0000e+00
  1000011  2    1    2    0    0 +4.6243334449e+02 +1.1446964156e+03 -6.3022239842e+02 2.6427834818e+03 2.2500999485e+03 1.6278e+03 0.0000e+00
 -1000011  2    1    2    0    0 -4.6243334449e+02 -1.1446964156e+03 -1.9868432074e+03 3.2457155967e+03 2.2500998471e+03 1.5546e+02 0.0000e+00
       11  1    3    3    0    0 +9.0409411341e-02 +6.3940848653e-02 -1.0730934593e-01 1.5420068234e-01 5.1100000000e-04 0.0000e+00 1.0000e+00
  1000022  1    3    3    0    0 +4.6234293508e+02 +1.1446324748e+03 -6.3011508907e+02 2.6426292811e+03 2.2500000000e+03 0.0000e+00 0.0000e+00
      -11  1    4    4    0    0 +3.1969571817e-02 +2.0401372390e-02 +2.2137991066e-02 4.3916067824e-02 5.1100000000e-04 0.0000e+00 -1.0000e+00
  1000022  1    4    4    0    0 -4.6246531406e+02 -1.1447168170e+03 -1.9868653454e+03 3.2456716807e+03 2.2500000000e+03 0.0000e+00 0.0000e+00
<mgrwt>
<rscale>  0 0.52749776E+04</rscale>
<asrwt>0</asrwt>
<pdfrwt beam="1">  1        2 0.65427420E+00 0.52749776E+04</pdfrwt>
<pdfrwt beam="2">  1       -2 0.25164873E+00 0.52749776E+04</pdfrwt>
<totfact> 0.92801340E-03</totfact>
</mgrwt>
</event>
<event>
 8      1 +1.2359593e-08 5.79422700e+03 7.81860800e-03 7.71645200e-02
        2 -1    0    0  501    0 +0.0000000000e+00 +0.0000000000e+00 +3.1610408898e+03 3.1610408898e+03 2.5500000000e-03 0.0000e+00 1.0000e+00
       -2 -1    0    0    0  501 -0.0000000000e+00 -0.0000000000e+00 -2.6552224749e+03 2.6552224749e+03 2.5500000000e-03 0.0000e+00 -1.0000e+00
  1000011  2    1    2    0    0 +4.6253903804e+02 -1.6434204404e+03 -3.9416354491e+02 2.8518569633e+03 2.2501000275e+03 4.9659e+02 0.0000e+00
 -1000011  2    1    2    0    0 -4.6253903804e+02 +1.6434204404e+03 +8.9998195976e+02 2.9644064014e+03 2.2501032596e+03 5.8011e+01 0.0000e+00
       11  1    3    3    0    0 -6.0320601966e-02 -1.3182521751e-01 -4.1814926916e-02 1.5088144894e-01 5.1100000000e-04 0.0000e+00 1.0000e+00
  1000022  1    3    3    0    0 +4.6259935864e+02 -1.6432886152e+03 -3.9412172998e+02 2.8517060819e+03 2.2500000000e+03 0.0000e+00 0.0000e+00
      -11  1    4    4    0    0 -8.5094439921e-02 +6.6807943406e-03 -2.2951247070e-02 8.8389574558e-02 5.1100000000e-04 0.0000e+00 -1.0000e+00
  1000022  1    4    4    0    0 -4.6245394360e+02 +1.6434137596e+03 +9.0000491101e+02 2.9643180118e+03 2.2500000000e+03 0.0000e+00 0.0000e+00
<mgrwt>
<rscale>  0 0.57942271E+04</rscale>
<asrwt>0</asrwt>
<pdfrwt beam="1">  1        2 0.48631398E+00 0.57942271E+04</pdfrwt>
<pdfrwt beam="2">  1       -2 0.40849577E+00 0.57942271E+04</pdfrwt>
<totfact> 0.61421663E-03</totfact>
</mgrwt>
</event>
<event>
 8      1 +1.2359593e-08 4.70058900e+03 7.81860800e-03 7.87643100e-02
       -1 -1    0    0    0  501 -0.0000000000e+00 +0.0000000000e+00 +1.5944341394e+03 1.5944341395e+03 5.0400000000e-03 0.0000e+00 -1.0000e+00
        1 -1    0    0  501    0 +0.0000000000e+00 -0.0000000000e+00 -3.4644788544e+03 3.4644788544e+03 5.0400000000e-03 0.0000e+00 1.0000e+00
  1000011  2    1    2    0    0 -2.4254469943e+02 +6.3265833695e+02 -8.8892907543e+02 2.5124149221e+03 2.2500998505e+03 3.1886e+02 0.0000e+00
 -1000011  2    1    2    0    0 +2.4254469943e+02 -6.3265833695e+02 -9.8111563952e+02 2.5464980717e+03 2.2501066705e+03 3.2682e+02 0.0000e+00
       11  1    3    3    0    0 +4.7658766427e-02 +9.3718864065e-02 -9.6039165347e-02 1.4240212654e-01 5.1100000000e-04 0.0000e+00 1.0000e+00
  1000022  1    3    3    0    0 -2.4259235819e+02 +6.3256461809e+02 -8.8883303626e+02 2.5122725200e+03 2.2500000000e+03 0.0000e+00 0.0000e+00
      -11  1    4    4    0    0 -4.2515476919e-02 -1.2404101565e-01 -5.7165677886e-02 1.4304514980e-01 5.1100000000e-04 0.0000e+00 -1.0000e+00
  1000022  1    4    4    0    0 +2.4258721490e+02 -6.3253429594e+02 -9.8105847384e+02 2.5463550266e+03 2.2500000000e+03 0.0000e+00 0.0000e+00
<mgrwt>
<rscale>  0 0.47005886E+04</rscale>
<asrwt>0</asrwt>
<pdfrwt beam="1">  1        1 0.53299675E+00 0.47005886E+04</pdfrwt>
<pdfrwt beam="2">  1       -1 0.24529756E+00 0.47005886E+04</pdfrwt>
<totfact> 0.14727846E-02</totfact>
</mgrwt>
</event>
<event>
 8      1 +1.2359593e-08 4.80167900e+03 7.81860800e-03 7.85985000e-02
       -2 -1    0    0    0  501 -0.0000000000e+00 +0.0000000000e+00 +1.4688599767e+03 1.4688599767e+03 2.5500000000e-03 0.0000e+00 -1.0000e+00
        2 -1    0    0  501    0 +0.0000000000e+00 -0.0000000000e+00 -3.9241529053e+03 3.9241529053e+03 2.5500000000e-03 0.0000e+00 1.0000e+00
  1000011  2    1    2    0    0 -1.9378519826e+02 -7.6129966926e+02 -9.0222475189e+02 2.5483504649e+03 2.2501001532e+03 4.8073e+02 0.0000e+00
 -1000011  2    1    2    0    0 +1.9378519826e+02 +7.6129966926e+02 -1.5530681767e+03 2.8446624172e+03 2.2501008015e+03 6.6039e+02 0.0000e+00
       11  1    3    3    0    0 +2.1269185148e-03 -2.7317127218e-02 -1.4531479584e-01 1.4787629881e-01 5.1100000000e-04 0.0000e+00 1.0000e+00
  1000022  1    3    3    0    0 -1.9378732518e+02 -7.6127235214e+02 -9.0207943710e+02 2.5482025886e+03 2.2500000000e+03 0.0000e+00 0.0000e+00
      -11  1    4    4    0    0 -8.3116303426e-02 +5.6124202242e-02 -2.7114547353e-02 1.0389275964e-01 5.1100000000e-04 0.0000e+00 -1.0000e+00
  1000022  1    4    4    0    0 +1.9386831457e+02 +7.6124354506e+02 -1.5530410621e+03 2.8445585244e+03 2.2500000000e+03 0.0000e+00 0.0000e+00
<mgrwt>
<rscale>  0 0.48016794E+04</rscale>
<asrwt>0</asrwt>
<pdfrwt beam="1">  1        2 0.60371583E+00 0.48016794E+04</pdfrwt>
<pdfrwt beam="2">  1       -2 0.22597846E+00 0.48016794E+04</pdfrwt>
<totfact> 0.26260507E-02</totfact>
</mgrwt>
</event>
<event>
 8      1 +1.2359593e-08 5.42357400e+03 7.81860800e-03 7.76629400e-02
       -2 -1    0    0    0  501 -0.0000000000e+00 +0.0000000000e+00 +2.3824063584e+03 2.3824063584e+03 2.5500000000e-03 0.0000e+00 -1.0000e+00
        2 -1    0    0  501    0 +0.0000000000e+00 -0.0000000000e+00 -3.0867059693e+03 3.0867059693e+03 2.5500000000e-03 0.0000e+00 1.0000e+00
  1000011  2    1    2    0    0 -2.8153646933e+02 -1.1491143783e+03 -1.3040631824e+03 2.8571419054e+03 2.2501005413e+03 1.9743e+02 0.0000e+00
 -1000011  2    1    2    0    0 +2.8153646933e+02 +1.1491143783e+03 +5.9976357157e+02 2.6119704223e+03 2.2500992216e+03 4.7533e+02 0.0000e+00
       11  1    3    3    0    0 -5.0584983087e-02 +4.4098919183e-02 -7.5055677783e-02 1.0068351757e-01 5.1100000000e-04 0.0000e+00 1.0000e+00
  1000022  1    3    3    0    0 -2.8148588434e+02 -1.1491584772e+03 -1.3039881268e+03 2.8570412219e+03 2.2500000000e+03 0.0000e+00 0.0000e+00
      -11  1    4    4    0    0 -6.1077560600e-02 +1.0875829125e-01 -7.6846206789e-03 1.2497259106e-01 5.1100000000e-04 0.0000e+00 -1.0000e+00
  1000022  1    4    4    0    0 +2.8159754689e+02 +1.1490056200e+03 +5.9977125619e+02 2.6118454497e+03 2.2500000000e+03 0.0000e+00 0.0000e+00
<mgrwt>
<rscale>  0 0.54235737E+04</rscale>
<asrwt>0</asrwt>
<pdfrwt beam="1">  1        2 0.47487784E+00 0.54235737E+04</pdfrwt>
<pdfrwt beam="2">  1       -2 0.36652406E+00 0.54235737E+04</pdfrwt>
<totfact> 0.13197330E-02</totfact>
</mgrwt>
</event>
<event>
 8      1 +1.2359593e-08 4.78453300e+03 7.81860800e-03 7.86263300e-02
       -1 -1    0    0    0  501 -0.0000000000e+00 +0.0000000000e+00 +1.5677473479e+03 1.5677473479e+03 5.0400000000e-03 0.0000e+00 -1.0000e+00
        1 -1    0    0  501    0 +0.0000000000e+00 -0.0000000000e+00 -3.6504224814e+03 3.6504224814e+03 5.0400000000e-03 0.0000e+00 1.0000e+00
  1000011  2    1    2    0    0 +3.7494850929e+02 +5.3754538092e+02 -1.5648980675e+03 2.8180487374e+03 2.2501002874e+03 1.3884e+03 0.0000e+00
 -1000011  2    1    2    0    0 -3.7494850929e+02 -5.3754538092e+02 -5.1777706605e+02 2.4001210919e+03 2.2500992744e+03 1.2476e+03 0.0000e+00
       11  1    3    3    0    0 +2.1625293150e-02 +9.7795289586e-02 -1.6570626223e-01 1.9362437289e-01 5.1100000000e-04 0.0000e+00 1.0000e+00
  1000022  1    3    3    0    0 +3.7492688399e+02 +5.3744758563e+02 -1.5647323612e+03 2.8178551130e+03 2.2500000000e+03 0.0000e+00 0.0000e+00
      -11  1    4    4    0    0 -3.8755373420e-02 +2.5313509668e-02 +6.4640455412e-02 7.9507244156e-02 5.1100000000e-04 0.0000e+00 -1.0000e+00
  1000022  1    4    4    0    0 -3.7490975391e+02 -5.3757069443e+02 -5.1784170651e+02 2.4000415847e+03 2.2500000000e+03 0.0000e+00 0.0000e+00
<mgrwt>
<rscale>  0 0.47845335E+04</rscale>
<asrwt>0</asrwt>
<pdfrwt beam="1">  1        1 0.56160346E+00 0.47845335E+04</pdfrwt>
<pdfrwt beam="2">  1       -1 0.24119190E+00 0.47845335E+04</pdfrwt>
<totfact> 0.11054847E-02</totfact>
</mgrwt>
</event>
<event>
 8      1 +1.2359593e-08 5.49864600e+03 7.81860800e-03 7.75587600e-02
        2 -1    0    0  501    0 +0.0000000000e+00 +0.0000000000e+00 +3.5755982992e+03 3.5755982992e+03 2.5500000000e-03 0.0000e+00 1.0000e+00
       -2 -1    0    0    0  501 -0.0000000000e+00 -0.0000000000e+00 -2.1139890682e+03 2.1139890682e+03 2.5500000000e-03 0.0000e+00 -1.0000e+00
  1000011  2    1    2    0    0 -1.1802464896e+03 -9.1758137214e+02 +1.2593093022e+03 2.9805618672e+03 2.2501003922e+03 1.3168e+03 0.0000e+00
 -1000011  2    1    2    0    0 +1.1802464896e+03 +9.1758137214e+02 +2.0229992886e+02 2.7090255002e+03 2.2501014530e+03 7.9944e+02 0.0000e+00
       11  1    3    3    0    0 +6.1182810827e-03 -7.7546277148e-02 +1.3152634269e-01 1.5280804295e-01 5.1100000000e-04 0.0000e+00 1.0000e+00
  1000022  1    3    3    0    0 -1.1802526079e+03 -9.1750382586e+02 +1.2591777759e+03 2.9804090592e+03 2.2500000000e+03 0.0000e+00 0.0000e+00
      -11  1    4    4    0    0 +6.4929711567e-02 -6.0021409521e-02 -2.0242249240e-02 9.0710786001e-02 5.1100000000e-04 0.0000e+00 -1.0000e+00
  1000022  1    4    4    0    0 +1.1801815599e+03 +9.1764139354e+02 +2.0232017111e+02 2.7089347894e+03 2.2500000000e+03 0.0000e+00 0.0000e+00
<mgrwt>
<rscale>  0 0.54986455E+04</rscale>
<asrwt>0</asrwt>
<pdfrwt beam="1">  1        2 0.55009204E+00 0.54986455E+04</pdfrwt>
<pdfrwt beam="2">  1       -2 0.32522909E+00 0.54986455E+04</pdfrwt>
<totfact> 0.11153022E-02</totfact>
</mgrwt>
</event>
<event>
 8      1 +1.2359593e-08 4.71276800e+03 7.81860800e-03 7.87441100e-02
        2 -1    0    0  501    0 +0.0000000000e+00 +0.0000000000e+00 +2.6169838377e+03 2.6169838377e+03 2.5500000000e-03 0.0000e+00 1.0000e+00
       -2 -1    0    0    0  501 -0.0000000000e+00 -0.0000000000e+00 -2.1217349371e+03 2.1217349371e+03 2.5500000000e-03 0.0000e+00 -1.0000e+00
  1000011  2    1    2    0    0 -3.8527788403e+02 +1.2810167986e+02 -3.2537727493e+02 2.3094745526e+03 2.2501007199e+03 2.2089e+02 0.0000e+00
 -1000011  2    1    2    0    0 +3.8527788403e+02 -1.2810167986e+02 +8.2062617550e+02 2.4292442223e+03 2.2501002385e+03 6.6568e+02 0.0000e+00
       11  1    3    3    0    0 -1.1382497240e-01 -6.7241286683e-03 -4.7144057925e-02 1.2338622758e-01 5.1100000000e-04 0.0000e+00 1.0000e+00
  1000022  1    3    3    0    0 -3.8516405905e+02 +1.2810840399e+02 -3.2533013087e+02 2.3093511664e+03 2.2500000000e+03 0.0000e+00 0.0000e+00
      -11  1    4    4    0    0 +5.2865448727e-03 -1.6916778530e-02 -6.9018474913e-02 7.1259633215e-02 5.1100000000e-04 0.0000e+00 -1.0000e+00
  1000022  1    4    4    0    0 +3.8527259748e+02 -1.2808476308e+02 +8.2069519397e+02 2.4291729626e+03 2.2500000000e+03 0.0000e+00 0.0000e+00
<mgrwt>
<rscale>  0 0.47127682E+04</rscale>
<asrwt>0</asrwt>
<pdfrwt beam="1">  1        2 0.40261290E+00 0.47127682E+04</pdfrwt>
<pdfrwt beam="2">  1       -2 0.32642076E+00 0.47127682E+04</pdfrwt>
<totfact> 0.48395195E-02</totfact>
</mgrwt>
</event>
<event>
 8      1 +1.2359593e-08 5.08376200e+03 7.81860800e-03 7.81571400e-02
        2 -1    0    0  501    0 +0.0000000000e+00 +0.0000000000e+00 +2.5610532313e+03 2.5610532313e+03 2.5500000000e-03 0.0000e+00 1.0000e+00
       -2 -1    0    0    0  501 -0.0000000000e+00 -0.0000000000e+00 -2.5228525605e+03 2.5228525605e+03 2.5500000000e-03 0.0000e+00 -1.0000e+00
  1000011  2    1    2    0    0 +8.6750171319e+02 +6.9157989770e+02 -3.9006791187e+02 2.5388702854e+03 2.2500816370e+03 4.5156e+02 0.0000e+00
 -1000011  2    1    2    0    0 -8.6750171319e+02 -6.9157989770e+02 +4.2826858260e+02 2.5450355064e+03 2.2500999473e+03 1.6194e+03 0.0000e+00
       11  1    3    3    0    0 -4.9927162906e-02 +3.1177024859e-02 +1.6769506650e-02 6.1206256008e-02 5.1100000000e-04 0.0000e+00 1.0000e+00
  1000022  1    3    3    0    0 +8.6755164035e+02 +6.9154872068e+02 -3.9008468137e+02 2.5388090792e+03 2.2500000000e+03 0.0000e+00 0.0000e+00
      -11  1    4    4    0    0 -6.5788585104e-02 -1.3058846080e-01 -2.8481960545e-04 1.4622525609e-01 5.1100000000e-04 0.0000e+00 -1.0000e+00
  1000022  1    4    4    0    0 -8.6743592460e+02 -6.9144930924e+02 +4.2826886742e+02 2.5448892812e+03 2.2500000000e+03 0.0000e+00 0.0000e+00
<mgrwt>
<rscale>  0 0.50837623E+04</rscale>
<asrwt>0</asrwt>
<pdfrwt beam="1">  1        2 0.39400819E+00 0.50837623E+04</pdfrwt>
<pdfrwt beam="2">  1       -2 0.38813116E+00 0.50837623E+04</pdfrwt>
<totfact> 0.20584695E-02</totfact>
</mgrwt>
</event>
<event>
 8      1 +1.2359593e-08 4.63093900e+03 7.81860800e-03 7.88810600e-02
       -1 -1    0    0    0  501 -0.0000000000e+00 +0.0000000000e+00 +1.6377916616e+03 1.6377916616e+03 5.0400000000e-03 0.0000e+00 1.0000e+00
        1 -1    0    0  501    0 +0.0000000000e+00 -0.0000000000e+00 -3.2735533921e+03 3.2735533921e+03 5.0400000000e-03 0.0000e+00 -1.0000e+00
  1000011  2    1    2    0    0 +5.3733564630e+02 +4.1678847025e+01 -9.1253273869e+02 2.4872003418e+03 2.2501072904e+03 4.9899e+02 0.0000e+00
 -1000011  2    1    2    0    0 -5.3733564630e+02 -4.1678847025e+01 -7.2322899178e+02 2.4241447119e+03 2.2501001503e+03 2.7737e+02 0.0000e+00
       11  1    3    3    0    0 -5.0948508875e-02 -7.4348037816e-02 -2.1236980325e-02 9.2599414327e-02 5.1100000000e-04 0.0000e+00 1.0000e+00
  1000022  1    3    3    0    0 +5.3738659481e+02 +4.1753195063e+01 -9.1251150171e+02 2.4871077424e+03 2.2500000000e+03 0.0000e+00 0.0000e+00
      -11  1    4    4    0    0 +3.4977058690e-02 +5.1804027816e-02 -9.3009789507e-02 1.1206307764e-01 5.1100000000e-04 0.0000e+00 -1.0000e+00
  1000022  1    4    4    0    0 -5.3737062336e+02 -4.1730651053e+01 -7.2313598199e+02 2.4240326488e+03 2.2500000000e+03 0.0000e+00 0.0000e+00
<mgrwt>
<rscale>  0 0.46309388E+04</rscale>
<asrwt>0</asrwt>
<pdfrwt beam="1">  1        1 0.50362360E+00 0.46309388E+04</pdfrwt>
<pdfrwt beam="2">  1       -1 0.25196795E+00 0.46309388E+04</pdfrwt>
<totfact> 0.18811072E-02</totfact>
</mgrwt>
</event>
<event>
 8      1 +1.2359593e-08 4.70994600e+03 7.81860800e-03 7.87487800e-02
       -2 -1    0    0    0  501 -0.0000000000e+00 +0.0000000000e+00 +1.8274117281e+03 1.8274117282e+03 2.5500000000e-03 0.0000e+00 -1.0000e+00
        2 -1    0    0  501    0 +0.0000000000e+00 -0.0000000000e+00 -3.0348381154e+03 3.0348381154e+03 2.5500000000e-03 0.0000e+00 1.0000e+00
  1000011  2    1    2    0    0 -3.0955003336e+02 +5.5145103724e+02 -3.0623516289e+02 2.3572544459e+03 2.2500997929e+03 1.3186e+03 0.0000e+00
 -1000011  2    1    2    0    0 +3.0955003336e+02 -5.5145103724e+02 -9.0119122439e+02 2.5049953977e+03 2.2500970756e+03 8.0904e+02 0.0000e+00
       11  1    3    3    0    0 -4.1341804657e-03 +8.0906457180e-02 -9.8476153124e-02 1.2751768487e-01 5.1100000000e-04 0.0000e+00 1.0000e+00
  1000022  1    3    3    0    0 -3.0954589918e+02 +5.5137013078e+02 -3.0613668673e+02 2.3571269282e+03 2.2500000000e+03 0.0000e+00 0.0000e+00
      -11  1    4    4    0    0 -3.6262482958e-02 -4.9582524645e-02 +4.6350649013e-02 7.6954777962e-02 5.1100000000e-04 0.0000e+00 -1.0000e+00
  1000022  1    4    4    0    0 +3.0958629584e+02 -5.5140145472e+02 -9.0123757503e+02 2.5049184429e+03 2.2500000000e+03 0.0000e+00 0.0000e+00
<mgrwt>
<rscale>  0 0.47099464E+04</rscale>
<asrwt>0</asrwt>
<pdfrwt beam="1">  1        2 0.46689817E+00 0.47099464E+04</pdfrwt>
<pdfrwt beam="2">  1       -2 0.28114027E+00 0.47099464E+04</pdfrwt>
<totfact> 0.51080144E-02</totfact>
</mgrwt>
</event>
<event>
 8      1 +1.2359593e-08 4.84686700e+03 7.81860800e-03 7.85257300e-02
        2 -1    0    0  501    0 +0.0000000000e+00 +0.0000000000e+00 +2.9733267501e+03 2.9733267501e+03 2.5500000000e-03 0.0000e+00 1.0000e+00
       -2 -1    0    0    0  501 -0.0000000000e+00 -0.0000000000e+00 -1.9752388462e+03 1.9752388462e+03 2.5500000000e-03 0.0000e+00 -1.0000e+00
  1000011  2    1    2    0    0 +2.4831852720e+02 -4.8029676668e+02 +1.2336784973e+03 2.6224529377e+03 2.2500999313e+03 9.8613e+02 0.0000e+00
 -1000011  2    1    2    0    0 -2.4831852720e+02 +4.8029676668e+02 -2.3559059340e+02 2.3261126586e+03 2.2501000195e+03 8.4133e+02 0.0000e+00
       11  1    3    3    0    0 +8.8509509878e-02 +9.5314089770e-03 +1.1821992061e-01 1.4798983625e-01 5.1100000000e-04 0.0000e+00 1.0000e+00
  1000022  1    3    3    0    0 +2.4823001769e+02 -4.8030629809e+02 +1.2335602774e+03 2.6223049479e+03 2.2500000000e+03 0.0000e+00 0.0000e+00
      -11  1    4    4    0    0 +6.3908665190e-02 -4.4705913782e-02 -3.0645313499e-02 8.3799356540e-02 5.1100000000e-04 0.0000e+00 -1.0000e+00
  1000022  1    4    4    0    0 -2.4838243586e+02 +4.8034147260e+02 -2.3555994809e+02 2.3260288592e+03 2.2500000000e+03 0.0000e+00 0.0000e+00
<mgrwt>
<rscale>  0 0.48468672E+04</rscale>
<asrwt>0</asrwt>
<pdfrwt beam="1">  1        2 0.45743488E+00 0.48468672E+04</pdfrwt>
<pdfrwt beam="2">  1       -2 0.30388290E+00 0.48468672E+04</pdfrwt>
<totfact> 0.40101223E-02</totfact>
</mgrwt>
</event>
<event>
 8      1 +1.2359593e-08 5.19328500e+03 7.81860800e-03 7.79936400e-02
       -1 -1    0    0    0  501 -0.0000000000e+00 +0.0000000000e+00 +1.5680765174e+03 1.5680765174e+03 5.0400000000e-03 0.0000e+00 -1.0000e+00
        1 -1    0    0  501    0 +0.0000000000e+00 -0.0000000000e+00 -4.2998869923e+03 4.2998869923e+03 5.0400000000e-03 0.0000e+00 1.0000e+00
  1000011  2    1    2    0    0 +5.8256279748e+02 -5.5416225838e+02 -2.1742954340e+02 2.3993130487e+03 2.2501005039e+03 7.0892e+02 0.0000e+00
 -1000011  2    1    2    0    0 -5.8256279748e+02 +5.5416225838e+02 -2.5143809315e+03 3.4686504609e+03 2.2500998488e+03 1.4997e+03 0.0000e+00
       11  1    3    3    0    0 +1.2757023871e-01 -1.6333414763e-02 +3.6784381511e-03 1.2866521565e-01 5.1100000000e-04 0.0000e+00 1.0000e+00
  1000022  1    3    3    0    0 +5.8243522724e+02 -5.5414592497e+02 -2.1743322184e+02 2.3991843835e+03 2.2500000000e+03 0.0000e+00 0.0000e+00
      -11  1    4    4    0    0 +3.8357921872e-02 +4.3989262101e-02 +8.7433917455e-03 5.9017736555e-02 5.1100000000e-04 0.0000e+00 -1.0000e+00
  1000022  1    4    4    0    0 -5.8260115540e+02 +5.5411826912e+02 -2.5143896749e+03 3.4685914432e+03 2.2500000000e+03 0.0000e+00 0.0000e+00
<mgrwt>
<rscale>  0 0.51932848E+04</rscale>
<asrwt>0</asrwt>
<pdfrwt beam="1">  1        1 0.66152107E+00 0.51932848E+04</pdfrwt>
<pdfrwt beam="2">  1       -1 0.24124254E+00 0.51932848E+04</pdfrwt>
<totfact> 0.28624592E-03</totfact>
</mgrwt>
</event>
<event>
 8      1 +1.2359593e-08 4.51717100e+03 7.81860800e-03 7.90763800e-02
       -2 -1    0    0    0  501 -0.0000000000e+00 +0.0000000000e+00 +2.0078121997e+03 2.0078121997e+03 2.5500000000e-03 0.0000e+00 1.0000e+00
        2 -1    0    0  501    0 +0.0000000000e+00 -0.0000000000e+00 -2.5406801711e+03 2.5406801711e+03 2.5500000000e-03 0.0000e+00 -1.0000e+00
  1000011  2    1    2    0    0 +4.0306997993e+01 -8.8197636650e+01 -4.3747527730e+02 2.2942833138e+03 2.2500995152e+03 3.3885e+02 0.0000e+00
 -1000011  2    1    2    0    0 -4.0306997993e+01 +8.8197636650e+01 -9.5392694030e+01 2.2542090570e+03 2.2501011599e+03 8.0156e+02 0.0000e+00
       11  1    3    3    0    0 +9.7711854989e-02 -2.2883548201e-02 -3.8770667685e-02 1.0758572678e-01 5.1100000000e-04 0.0000e+00 1.0000e+00
  1000022  1    3    3    0    0 +4.0209286138e+01 -8.8174753102e+01 -4.3743650663e+02 2.2941757280e+03 2.2500000000e+03 0.0000e+00 0.0000e+00
      -11  1    4    4    0    0 -2.9965992594e-02 +7.2290921316e-02 -7.3634665868e-02 1.0745353843e-01 5.1100000000e-04 0.0000e+00 -1.0000e+00
  1000022  1    4    4    0    0 -4.0277032000e+01 +8.8125345729e+01 -9.5319059364e+01 2.2541016035e+03 2.2500000000e+03 0.0000e+00 0.0000e+00
<mgrwt>
<rscale>  0 0.45171711E+04</rscale>
<asrwt>0</asrwt>
<pdfrwt beam="1">  1        2 0.39087387E+00 0.45171711E+04</pdfrwt>
<pdfrwt beam="2">  1       -2 0.30889418E+00 0.45171711E+04</pdfrwt>
<totfact> 0.69917673E-02</totfact>
</mgrwt>
</event>
<event>
 8      1 +1.2359593e-08 5.89812200e+03 7.81860800e-03 7.70316300e-02
       -2 -1    0    0    0  501 -0.0000000000e+00 +0.0000000000e+00 +2.3095782516e+03 2.3095782516e+03 2.5500000000e-03 0.0000e+00 -1.0000e+00
        2 -1    0    0  501    0 +0.0000000000e+00 -0.0000000000e+00 -3.7656059445e+03 3.7656059445e+03 2.5500000000e-03 0.0000e+00 1.0000e+00
  1000011  2    1    2    0    0 +5.9122526475e+02 +1.5219316586e+03 -1.7414913266e+03 3.2805005038e+03 2.2501262693e+03 1.9919e+03 0.0000e+00
 -1000011  2    1    2    0    0 -5.9122526475e+02 -1.5219316586e+03 +2.8546363370e+02 2.7946836923e+03 2.2500987015e+03 7.9646e+01 0.0000e+00
       11  1    3    3    0    0 -2.9592265519e-02 +2.0651205442e-01 -1.4482112070e-01 2.5396131284e-01 5.1100000000e-04 0.0000e+00 1.0000e+00
  1000022  1    3    3    0    0 +5.9125485702e+02 +1.5217251465e+03 -1.7413465055e+03 3.2802465425e+03 2.2500000000e+03 0.0000e+00 0.0000e+00
      -11  1    4    4    0    0 -2.5648579070e-02 -1.2851667632e-01 +1.0048928001e-01 1.6514460928e-01 5.1100000000e-04 0.0000e+00 -1.0000e+00
  1000022  1    4    4    0    0 -5.9119961617e+02 -1.5218031419e+03 +2.8536314442e+02 2.7945185476e+03 2.2500000000e+03 0.0000e+00 0.0000e+00
<mgrwt>
<rscale>  0 0.58981223E+04</rscale>
<asrwt>0</asrwt>
<pdfrwt beam="1">  1        2 0.57932399E+00 0.58981223E+04</pdfrwt>
<pdfrwt beam="2">  1       -2 0.35531973E+00 0.58981223E+04</pdfrwt>
<totfact> 0.50766927E-03</totfact>
</mgrwt>
</event>
<event>
 8      1 +1.2359593e-08 5.02301300e+03 7.81860800e-03 7.82496700e-02
        2 -1    0    0  501    0 +0.0000000000e+00 +0.0000000000e+00 +2.0772146904e+03 2.0772146904e+03 2.5500000000e-03 0.0000e+00 1.0000e+00
       -2 -1    0    0    0  501 -0.0000000000e+00 -0.0000000000e+00 -3.0365977709e+03 3.0365977709e+03 2.5500000000e-03 0.0000e+00 -1.0000e+00
  1000011  2    1    2    0    0 -8.3541657890e+02 -5.5129625750e+02 -9.8140006423e+02 2.6510293353e+03 2.2501026702e+03 1.0856e+03 0.0000e+00
 -1000011  2    1    2    0    0 +8.3541657890e+02 +5.5129625750e+02 +2.2016983747e+01 2.4627831261e+03 2.2501038986e+03 1.4615e+03 0.0000e+00
       11  1    3    3    0    0 -9.8872678648e-02 -7.4075536461e-02 +2.2129495110e-02 1.2551082463e-01 5.1100000000e-04 0.0000e+00 1.0000e+00
  1000022  1    3    3    0    0 -8.3531770623e+02 -5.5122218196e+02 -9.8142219372e+02 2.6509038245e+03 2.2500000000e+03 0.0000e+00 0.0000e+00
      -11  1    4    4    0    0 +5.6850164275e-02 -7.7684487907e-02 -9.5052670200e-03 9.6733817590e-02 5.1100000000e-04 0.0000e+00 -1.0000e+00
  1000022  1    4    4    0    0 +8.3535972874e+02 +5.5137394198e+02 +2.2026489014e+01 2.4626863922e+03 2.2500000000e+03 0.0000e+00 0.0000e+00
<mgrwt>
<rscale>  0 0.50230132E+04</rscale>
<asrwt>0</asrwt>
<pdfrwt beam="1">  1        2 0.31957149E+00 0.50230132E+04</pdfrwt>
<pdfrwt beam="2">  1       -2 0.46716889E+00 0.50230132E+04</pdfrwt>
<totfact> 0.11812312E-02</totfact>
</mgrwt>
</event>
<event>
 8      1 +1.2359593e-08 7.21682000e+03 7.81860800e-03 7.55547900e-02
       -2 -1    0    0    0  501 -0.0000000000e+00 +0.0000000000e+00 +5.2456994961e+03 5.2456994961e+03 2.5500000000e-03 0.0000e+00 -1.0000e+00
        2 -1    0    0  501    0 +0.0000000000e+00 -0.0000000000e+00 -2.4821517304e+03 2.4821517304e+03 2.5500000000e-03 0.0000e+00 1.0000e+00
  1000011  2    1    2    0    0 -6.1876753120e+02 -1.4743963979e+03 -1.1067875197e+03 2.9739925714e+03 2.2500967103e+03 1.8448e+03 0.0000e+00
 -1000011  2    1    2    0    0 +6.1876753120e+02 +1.4743963979e+03 +3.8703352854e+03 4.7538586551e+03 2.2501019745e+03 1.5312e+03 0.0000e+00
       11  1    3    3    0    0 -1.0028110931e-01 -2.9866552590e-02 -1.0404719353e-01 1.4756148207e-01 5.1100000000e-04 0.0000e+00 1.0000e+00
  1000022  1    3    3    0    0 -6.1866725009e+02 -1.4743665313e+03 -1.1066834725e+03 2.9738450100e+03 2.2500000000e+03 0.0000e+00 0.0000e+00
      -11  1    4    4    0    0 +1.1169130103e-01 +1.3626310340e-01 +3.2463644438e-01 3.6936656832e-01 5.1100000000e-04 0.0000e+00 -1.0000e+00
  1000022  1    4    4    0    0 +6.1865583990e+02 +1.4742601348e+03 +3.8700106489e+03 4.7534892885e+03 2.2500000000e+03 0.0000e+00 0.0000e+00
<mgrwt>
<rscale>  0 0.72168198E+04</rscale>
<asrwt>0</asrwt>
<pdfrwt beam="1">  1        2 0.38186951E+00 0.72168198E+04</pdfrwt>
<pdfrwt beam="2">  1       -2 0.80703067E+00 0.72168198E+04</pdfrwt>
<totfact> 0.15535103E-04</totfact>
</mgrwt>
</event>
<event>
 8      1 +1.2359593e-08 4.57766200e+03 7.81860800e-03 7.89718000e-02
        2 -1    0    0  501    0 +0.0000000000e+00 +0.0000000000e+00 +2.2902481410e+03 2.2902481410e+03 2.5500000000e-03 0.0000e+00 1.0000e+00
       -2 -1    0    0    0  501 -0.0000000000e+00 -0.0000000000e+00 -2.2874152316e+03 2.2874152316e+03 2.5500000000e-03 0.0000e+00 -1.0000e+00
  1000011  2    1    2    0    0 +2.0394072488e+02 -2.8772008184e+02 +2.2819019219e+02 2.2889723004e+03 2.2500997230e+03 1.5230e+03 0.0000e+00
 -1000011  2    1    2    0    0 -2.0394072488e+02 +2.8772008184e+02 -2.2535728277e+02 2.2886910723e+03 2.2500991655e+03 9.9440e+02 0.0000e+00
       11  1    3    3    0    0 +3.8288174461e-02 +3.6709191240e-02 +9.1737535043e-02 1.0596973812e-01 5.1100000000e-04 0.0000e+00 1.0000e+00
  1000022  1    3    3    0    0 +2.0390243671e+02 -2.8775679103e+02 +2.2809845465e+02 2.2888663306e+03 2.2500000000e+03 0.0000e+00 0.0000e+00
      -11  1    4    4    0    0 -5.7280646357e-02 +9.7830746747e-02 -3.3386970820e-02 1.1818154680e-01 5.1100000000e-04 0.0000e+00 -1.0000e+00
  1000022  1    4    4    0    0 -2.0388344423e+02 +2.8762225109e+02 -2.2532389580e+02 2.2885728907e+03 2.2500000000e+03 0.0000e+00 0.0000e+00
<mgrwt>
<rscale>  0 0.45776625E+04</rscale>
<asrwt>0</asrwt>
<pdfrwt beam="1">  1        2 0.35234587E+00 0.45776625E+04</pdfrwt>
<pdfrwt beam="2">  1       -2 0.35191004E+00 0.45776625E+04</pdfrwt>
<totfact> 0.52319823E-02</totfact>
</mgrwt>
</event>
<event>
 8      1 +1.2359593e-08 5.60512000e+03 7.81860800e-03 7.74138800e-02
       -2 -1    0    0    0  501 -0.0000000000e+00 +0.0000000000e+00 +3.0448954403e+03 3.0448954403e+03 2.5500000000e-03 0.0000e+00 -1.0000e+00
        2 -1    0    0  501    0 +0.0000000000e+00 -0.0000000000e+00 -2.5795115573e+03 2.5795115573e+03 2.5500000000e-03 0.0000e+00 1.0000e+00
  1000011  2    1    2    0    0 -3.5984410859e+02 +3.4111447299e+02 +1.8336567631e+03 2.9446727529e+03 2.2501008046e+03 5.9350e+02 0.0000e+00
 -1000011  2    1    2    0    0 +3.5984410859e+02 -3.4111447299e+02 -1.3682728801e+03 2.6797342447e+03 2.2501017936e+03 2.1991e+03 0.0000e+00
       11  1    3    3    0    0 +5.9915664401e-02 +5.1414201208e-02 +5.6079737517e-03 7.9151860059e-02 5.1100000000e-04 0.0000e+00 1.0000e+00
  1000022  1    3    3    0    0 -3.5990402426e+02 +3.4106305879e+02 +1.8336511551e+03 2.9445936011e+03 2.2500000000e+03 0.0000e+00 0.0000e+00
      -11  1    4    4    0    0 -4.5289538436e-02 +6.5867477982e-02 -2.4928978048e-02 8.3733993645e-02 5.1100000000e-04 0.0000e+00 -1.0000e+00
  1000022  1    4    4    0    0 +3.5988939813e+02 -3.4118034046e+02 -1.3682479511e+03 2.6796505107e+03 2.2500000000e+03 0.0000e+00 0.0000e+00
<mgrwt>
<rscale>  0 0.56051202E+04</rscale>
<asrwt>0</asrwt>
<pdfrwt beam="1">  1        2 0.39684794E+00 0.56051202E+04</pdfrwt>
<pdfrwt beam="2">  1       -2 0.46844545E+00 0.56051202E+04</pdfrwt>
<totfact> 0.57332252E-03</totfact>
</mgrwt>
</event>
<event>
 8      1 +1.2359593e-08 4.63622900e+03 7.81860800e-03 7.88721200e-02
        3 -1    0    0  501    0 +0.0000000000e+00 +0.0000000000e+00 +4.4043735853e+03 4.4043735865e+03 1.0100000000e-01 0.0000e+00 1.0000e+00
       -3 -1    0    0    0  501 -0.0000000000e+00 -0.0000000000e+00 -1.2200721842e+03 1.2200721884e+03 1.0100000000e-01 0.0000e+00 -1.0000e+00
  1000011  2    1    2    0    0 -3.0150944645e+02 +1.2600257224e+02 +1.0443377700e+03 2.5020775182e+03 2.2501035387e+03 5.8509e+01 0.0000e+00
 -1000011  2    1    2    0    0 +3.0150944645e+02 -1.2600257224e+02 +2.1399636311e+03 3.1223682566e+03 2.2501010184e+03 6.4745e+02 0.0000e+00
       11  1    3    3    0    0 +4.6049523680e-02 -6.2342615548e-02 +9.9029296237e-02 1.2575461422e-01 5.1100000000e-04 0.0000e+00 1.0000e+00
  1000022  1    3    3    0    0 -3.0155549598e+02 +1.2606491486e+02 +1.0442387407e+03 2.5019517636e+03 2.2500000000e+03 0.0000e+00 0.0000e+00
      -11  1    4    4    0    0 -9.0945138580e-04 -3.1997737485e-03 -4.3139844964e-02 4.3270920459e-02 5.1100000000e-04 0.0000e+00 -1.0000e+00
  1000022  1    4    4    0    0 +3.0151035590e+02 -1.2599937247e+02 +2.1400067709e+03 3.1223249857e+03 2.2500000000e+03 0.0000e+00 0.0000e+00
<mgrwt>
<rscale>  0 0.46362285E+04</rscale>
<asrwt>0</asrwt>
<pdfrwt beam="1">  1        3 0.67759593E+00 0.46362285E+04</pdfrwt>
<pdfrwt beam="2">  1       -3 0.18770342E+00 0.46362285E+04</pdfrwt>
<totfact> 0.15043088E-04</totfact>
</mgrwt>
</event>
<event>
 8      1 +1.2359593e-08 5.23958100e+03 7.81860800e-03 7.79257600e-02
        2 -1    0    0  501    0 +0.0000000000e+00 +0.0000000000e+00 +4.0152301605e+03 4.0152301605e+03 2.5500000000e-03 0.0000e+00 1.0000e+00
       -2 -1    0    0    0  501 -0.0000000000e+00 -0.0000000000e+00 -1.7093172688e+03 1.7093172688e+03 2.5500000000e-03 0.0000e+00 -1.0000e+00
  1000011  2    1    2    0    0 +8.4476151344e+02 -4.4080002649e+02 +2.1850721958e+03 3.2780191421e+03 2.2500982906e+03 2.4709e+03 0.0000e+00
 -1000011  2    1    2    0    0 -8.4476151344e+02 +4.4080002649e+02 +1.2084069595e+02 2.4465282872e+03 2.2501047772e+03 6.8388e+01 0.0000e+00
       11  1    3    3    0    0 +1.3827081864e-01 -1.8765223696e-02 +1.5973641712e-01 2.1210124098e-01 5.1100000000e-04 0.0000e+00 1.0000e+00
  1000022  1    3    3    0    0 +8.4462324262e+02 -4.4078126126e+02 +2.1849124594e+03 3.2778070409e+03 2.2500000000e+03 0.0000e+00 0.0000e+00
      -11  1    4    4    0    0 -7.3617692772e-02 +1.2188015526e-01 -1.3827982715e-02 1.4305876721e-01 5.1100000000e-04 0.0000e+00 -1.0000e+00
  1000022  1    4    4    0    0 -8.4468789575e+02 +4.4067814633e+02 +1.2085452393e+02 2.4463852284e+03 2.2500000000e+03 0.0000e+00 0.0000e+00
<mgrwt>
<rscale>  0 0.52395810E+04</rscale>
<asrwt>0</asrwt>
<pdfrwt beam="1">  1        2 0.61772772E+00 0.52395810E+04</pdfrwt>
<pdfrwt beam="2">  1       -2 0.26297189E+00 0.52395810E+04</pdfrwt>
<totfact> 0.12646070E-02</totfact>
</mgrwt>
</event>
<event>
 8      1 +1.2359593e-08 6.43102900e+03 7.81860800e-03 7.63914100e-02
       -2 -1    0    0    0  501 -0.0000000000e+00 +0.0000000000e+00 +4.9905488170e+03 4.9905488170e+03 2.5500000000e-03 0.0000e+00 -1.0000e+00
        2 -1    0    0  501    0 +0.0000000000e+00 -0.0000000000e+00 -2.0718231078e+03 2.0718231078e+03 2.5500000000e-03 0.0000e+00 1.0000e+00
  1000011  2    1    2    0    0 +1.4748163094e+03 +6.9188085760e+02 -3.1913653038e+02 2.7961718563e+03 2.2500992551e+03 8.0418e+02 0.0000e+00
 -1000011  2    1    2    0    0 -1.4748163094e+03 -6.9188085760e+02 +3.2378622395e+03 4.2662000685e+03 2.2500953035e+03 1.3130e+03 0.0000e+00
       11  1    3    3    0    0 +7.3439048953e-02 +1.1594770401e-01 -7.3477787209e-02 1.5568047373e-01 5.1100000000e-04 0.0000e+00 1.0000e+00
  1000022  1    3    3    0    0 +1.4747428703e+03 +6.9176490989e+02 -3.1906305259e+02 2.7960161759e+03 2.2500000000e+03 0.0000e+00 0.0000e+00
      -11  1    4    4    0    0 -1.7041795728e-01 -6.6167705202e-02 +2.4867049727e-01 3.0863849820e-01 5.1100000000e-04 0.0000e+00 -1.0000e+00
  1000022  1    4    4    0    0 -1.4746458914e+03 -6.9181468989e+02 +3.2376135690e+03 4.2658914300e+03 2.2500000000e+03 0.0000e+00 0.0000e+00
<mgrwt>
<rscale>  0 0.64310293E+04</rscale>
<asrwt>0</asrwt>
<pdfrwt beam="1">  1        2 0.31874202E+00 0.64310293E+04</pdfrwt>
<pdfrwt beam="2">  1       -2 0.76777674E+00 0.64310293E+04</pdfrwt>
<totfact> 0.47405695E-04</totfact>
</mgrwt>
</event>
<event>
 8      1 +1.2359593e-08 5.77629400e+03 7.81860800e-03 7.71877500e-02
        2 -1    0    0  501    0 +0.0000000000e+00 +0.0000000000e+00 +4.7113092021e+03 4.7113092021e+03 2.5500000000e-03 0.0000e+00 1.0000e+00
       -2 -1    0    0    0  501 -0.0000000000e+00 -0.0000000000e+00 -1.7705043070e+03 1.7705043070e+03 2.5500000000e-03 0.0000e+00 -1.0000e+00
  1000011  2    1    2    0    0 -1.0495374449e+03 -1.3871690504e+03 +9.0632969396e+02 2.9849868912e+03 2.2500991987e+03 1.8575e+02 0.0000e+00
 -1000011  2    1    2    0    0 +1.0495374449e+03 +1.3871690504e+03 +2.0344752011e+03 3.4968266179e+03 2.2500978265e+03 6.2557e+02 0.0000e+00
       11  1    3    3    0    0 -2.6267264155e-02 -1.5778837605e-01 +9.5851610948e-03 1.6024754877e-01 5.1100000000e-04 0.0000e+00 1.0000e+00
  1000022  1    3    3    0    0 -1.0495111777e+03 -1.3870112620e+03 +9.0632010880e+02 2.9848266437e+03 2.2500000000e+03 0.0000e+00 0.0000e+00
      -11  1    4    4    0    0 +7.7018472482e-02 +4.0543845350e-02 -2.1478235087e-02 8.9650566821e-02 5.1100000000e-04 0.0000e+00 -1.0000e+00
  1000022  1    4    4    0    0 +1.0494604264e+03 +1.3871285066e+03 +2.0344966793e+03 3.4967369673e+03 2.2500000000e+03 0.0000e+00 0.0000e+00
<mgrwt>
<rscale>  0 0.57762940E+04</rscale>
<asrwt>0</asrwt>
<pdfrwt beam="1">  1        2 0.72481680E+00 0.57762940E+04</pdfrwt>
<pdfrwt beam="2">  1       -2 0.27238528E+00 0.57762940E+04</pdfrwt>
<totfact> 0.23595038E-03</totfact>
</mgrwt>
</event>
<event>
 8      1 +1.2359593e-08 5.17609300e+03 7.81860800e-03 7.80190300e-02
        2 -1    0    0  501    0 +0.0000000000e+00 +0.0000000000e+00 +4.3553845777e+03 4.3553845777e+03 2.5500000000e-03 0.0000e+00 1.0000e+00
       -2 -1    0    0    0  501 -0.0000000000e+00 -0.0000000000e+00 -1.5378629230e+03 1.5378629230e+03 2.5500000000e-03 0.0000e+00 -1.0000e+00
  1000011  2    1    2    0    0 -2.7833769448e+02 -8.8623046219e+02 +4.0830041399e+02 2.4683145241e+03 2.2501091213e+03 4.4549e+02 0.0000e+00
 -1000011  2    1    2    0    0 +2.7833769448e+02 +8.8623046219e+02 +2.4092212407e+03 3.4249329766e+03 2.2500983541e+03 2.2856e+03 0.0000e+00
       11  1    3    3    0    0 +5.1441622133e-03 +6.3922071719e-02 +5.6132194697e-02 8.5226625876e-02 5.1100000000e-04 0.0000e+00 1.0000e+00
  1000022  1    3    3    0    0 -2.7834283864e+02 -8.8629438426e+02 +4.0824428179e+02 2.4682292975e+03 2.2500000000e+03 0.0000e+00 0.0000e+00
      -11  1    4    4    0    0 +5.4827516713e-02 +9.8309838111e-02 +3.2016741425e-02 1.1703082200e-01 5.1100000000e-04 0.0000e+00 -1.0000e+00
  1000022  1    4    4    0    0 +2.7828286696e+02 +8.8613215235e+02 +2.4091892239e+03 3.4248159457e+03 2.2500000000e+03 0.0000e+00 0.0000e+00
<mgrwt>
<rscale>  0 0.51760929E+04</rscale>
<asrwt>0</asrwt>
<pdfrwt beam="1">  1        2 0.67005916E+00 0.51760929E+04</pdfrwt>
<pdfrwt beam="2">  1       -2 0.23659430E+00 0.51760929E+04</pdfrwt>
<totfact> 0.93507290E-03</totfact>
</mgrwt>
</event>
<event>
 8      1 +1.2359593e-08 4.70328300e+03 7.81860800e-03 7.87598300e-02
       -2 -1    0    0    0  501 -0.0000000000e+00 +0.0000000000e+00 +2.4827426405e+03 2.4827426405e+03 2.5500000000e-03 0.0000e+00 -1.0000e+00
        2 -1    0    0  501    0 +0.0000000000e+00 -0.0000000000e+00 -2.2274628048e+03 2.2274628048e+03 2.5500000000e-03 0.0000e+00 1.0000e+00
  1000011  2    1    2    0    0 -5.1835276217e+02 +2.1508944987e+02 -2.6321651537e+02 2.3339176418e+03 2.2500967907e+03 7.6541e+01 0.0000e+00
 -1000011  2    1    2    0    0 +5.1835276217e+02 -2.1508944987e+02 +5.1849635106e+02 2.3762878035e+03 2.2501004870e+03 1.0239e+03 0.0000e+00
       11  1    3    3    0    0 +7.1938723740e-02 -5.1117684150e-03 +1.9374994026e-02 7.4679057425e-02 5.1100000000e-04 0.0000e+00 1.0000e+00
  1000022  1    3    3    0    0 -5.1842470089e+02 +2.1509456164e+02 -2.6323589037e+02 2.3338429628e+03 2.2500000000e+03 0.0000e+00 0.0000e+00
      -11  1    4    4    0    0 +2.8163685798e-02 +8.8604147992e-02 +4.4061901514e-02 1.0288634493e-01 5.1100000000e-04 0.0000e+00 -1.0000e+00
  1000022  1    4    4    0    0 +5.1832459848e+02 -2.1517805402e+02 +5.1845228916e+02 2.3761849171e+03 2.2500000000e+03 0.0000e+00 0.0000e+00
<mgrwt>
<rscale>  0 0.47032826E+04</rscale>
<asrwt>0</asrwt>
<pdfrwt beam="1">  1        2 0.34268659E+00 0.47032826E+04</pdfrwt>
<pdfrwt beam="2">  1       -2 0.38196041E+00 0.47032826E+04</pdfrwt>
<totfact> 0.36125753E-02</totfact>
</mgrwt>
</event>
<event>
 8      1 +1.2359593e-08 4.56872500e+03 7.81860800e-03 7.89871400e-02
       -1 -1    0    0    0  501 -0.0000000000e+00 +0.0000000000e+00 +2.6221066313e+03 2.6221066313e+03 5.0400000000e-03 0.0000e+00 -1.0000e+00
        1 -1    0    0  501    0 +0.0000000000e+00 -0.0000000000e+00 -1.9901221330e+03 1.9901221330e+03 5.0400000000e-03 0.0000e+00 1.0000e+00
  1000011  2    1    2    0    0 -2.1920694882e+02 +2.2969175810e+02 +5.5178976478e+02 2.3384242766e+03 2.2500991451e+03 2.0950e+03 0.0000e+00
 -1000011  2    1    2    0    0 +2.1920694882e+02 -2.2969175810e+02 +8.0194733526e+01 2.2738044877e+03 2.2500990340e+03 1.5464e+02 0.0000e+00
       11  1    3    3    0    0 +2.9079835435e-02 +9.0131926699e-02 +7.0758793863e-02 1.1822211686e-01 5.1100000000e-04 0.0000e+00 1.0000e+00
  1000022  1    3    3    0    0 -2.1923602866e+02 +2.2960162617e+02 +5.5171900599e+02 2.3383060545e+03 2.2500000000e+03 0.0000e+00 0.0000e+00
      -11  1    4    4    0    0 -1.0339267836e-03 -8.6650124020e-02 +6.6089833818e-02 1.0898366839e-01 5.1100000000e-04 0.0000e+00 -1.0000e+00
  1000022  1    4    4    0    0 +2.1920798275e+02 -2.2960510797e+02 +8.0128643692e+01 2.2736955040e+03 2.2500000000e+03 0.0000e+00 0.0000e+00
<mgrwt>
<rscale>  0 0.45687252E+04</rscale>
<asrwt>0</asrwt>
<pdfrwt beam="1">  1        1 0.30617264E+00 0.45687252E+04</pdfrwt>
<pdfrwt beam="2">  1       -1 0.40340102E+00 0.45687252E+04</pdfrwt>
<totfact> 0.15332917E-02</totfact>
</mgrwt>
</event>
<event>
 8      1 +1.2359593e-08 4.87926000e+03 7.81860800e-03 7.84740700e-02
        1 -1    0    0  501    0 +0.0000000000e+00 +0.0000000000e+00 +2.7219023595e+03 2.7219023595e+03 5.0400000000e-03 0.0000e+00 1.0000e+00
       -1 -1    0    0    0  501 -0.0000000000e+00 -0.0000000000e+00 -2.1866301239e+03 2.1866301239e+03 5.0400000000e-03 0.0000e+00 -1.0000e+00
  1000011  2    1    2    0    0 -5.9138620261e+02 -5.5259575404e+02 +7.5401867088e+02 2.5073082642e+03 2.2501001906e+03 5.5844e+02 0.0000e+00
 -1000011  2    1    2    0    0 +5.9138620261e+02 +5.5259575404e+02 -2.1874643533e+02 2.4012242192e+03 2.2500951180e+03 1.0266e+02 0.0000e+00
       11  1    3    3    0    0 -2.0973833548e-02 -1.1985547370e-01 +7.8821356747e-02 1.4497690685e-01 5.1100000000e-04 0.0000e+00 1.0000e+00
  1000022  1    3    3    0    0 -5.9136522877e+02 -5.5247589856e+02 +7.5393984952e+02 2.5071632873e+03 2.2500000000e+03 0.0000e+00 0.0000e+00
      -11  1    4    4    0    0 +1.0678453029e-01 +8.2550900681e-02 -1.0377227677e-02 1.3537183798e-01 5.1100000000e-04 0.0000e+00 -1.0000e+00
  1000022  1    4    4    0    0 +5.9127941808e+02 +5.5251320314e+02 -2.1873605810e+02 2.4010888474e+03 2.2500000000e+03 0.0000e+00 0.0000e+00
<mgrwt>
<rscale>  0 0.48792597E+04</rscale>
<asrwt>0</asrwt>
<pdfrwt beam="1">  1        1 0.41875421E+00 0.48792597E+04</pdfrwt>
<pdfrwt beam="2">  1       -1 0.33640464E+00 0.48792597E+04</pdfrwt>
<totfact> 0.13190380E-02</totfact>
</mgrwt>
</event>
<event>
 8      1 +1.2359593e-08 4.64406300e+03 7.81860800e-03 7.88589000e-02
       -2 -1    0    0    0  501 -0.0000000000e+00 +0.0000000000e+00 +1.7665837152e+03 1.7665837152e+03 2.5500000000e-03 0.0000e+00 -1.0000e+00
        2 -1    0    0  501    0 +0.0000000000e+00 -0.0000000000e+00 -3.0521224793e+03 3.0521224793e+03 2.5500000000e-03 0.0000e+00 1.0000e+00
  1000011  2    1    2    0    0 +5.1613657988e+02 +2.4792200051e+02 -6.7589566530e+02 2.4181907625e+03 2.2500998480e+03 5.1073e+02 0.0000e+00
 -1000011  2    1    2    0    0 -5.1613657988e+02 -2.4792200051e+02 -6.0964309882e+02 2.4005154321e+03 2.2500994076e+03 1.9111e+03 0.0000e+00
       11  1    3    3    0    0 +6.7437065833e-02 +9.3083210972e-02 -7.7041079336e-02 1.3837568675e-01 5.1100000000e-04 0.0000e+00 1.0000e+00
  1000022  1    3    3    0    0 +5.1606914281e+02 +2.4782891730e+02 -6.7581862422e+02 2.4180523868e+03 2.2500000000e+03 0.0000e+00 0.0000e+00
      -11  1    4    4    0    0 -1.7076068187e-02 -7.7269492678e-02 +4.8107742935e-02 9.2610919200e-02 5.1100000000e-04 0.0000e+00 -1.0000e+00
  1000022  1    4    4    0    0 -5.1611950381e+02 -2.4784473102e+02 -6.0969120656e+02 2.4004228211e+03 2.2500000000e+03 0.0000e+00 0.0000e+00
<mgrwt>
<rscale>  0 0.46440628E+04</rscale>
<asrwt>0</asrwt>
<pdfrwt beam="1">  1        2 0.46955730E+00 0.46440628E+04</pdfrwt>
<pdfrwt beam="2">  1       -2 0.27178211E+00 0.46440628E+04</pdfrwt>
<totfact> 0.57110557E-02</totfact>
</mgrwt>
</event>
<event>
 8      1 +1.2359593e-08 5.69945700e+03 7.81860800e-03 7.72882500e-02
       -2 -1    0    0    0  501 -0.0000000000e+00 +0.0000000000e+00 +1.9358316262e+03 1.9358316262e+03 2.5500000000e-03 0.0000e+00 -1.0000e+00
        2 -1    0    0  501    0 +0.0000000000e+00 -0.0000000000e+00 -4.1950717424e+03 4.1950717424e+03 2.5500000000e-03 0.0000e+00 1.0000e+00
  1000011  2    1    2    0    0 +1.5430758867e+03 -1.4714603170e+02 -2.5885631639e+02 2.7445749206e+03 2.2500999434e+03 1.5640e+02 0.0000e+00
 -1000011  2    1    2    0    0 -1.5430758867e+03 +1.4714603170e+02 -2.0003837999e+03 3.3863284481e+03 2.2500999677e+03 3.1578e+03 0.0000e+00
       11  1    3    3    0    0 +5.6795274821e-02 -9.2859457157e-02 -6.0541614099e-02 1.2455572936e-01 5.1100000000e-04 0.0000e+00 1.0000e+00
  1000022  1    3    3    0    0 +1.5430190914e+03 -1.4705317225e+02 -2.5879577478e+02 2.7444503648e+03 2.2500000000e+03 0.0000e+00 0.0000e+00
      -11  1    4    4    0    0 -1.4517038556e-01 -6.6239157080e-02 -1.4167206599e-01 2.1338533611e-01 5.1100000000e-04 0.0000e+00 -1.0000e+00
  1000022  1    4    4    0    0 -1.5429307163e+03 +1.4721227086e+02 -2.0002421278e+03 3.3861150627e+03 2.2500000000e+03 0.0000e+00 0.0000e+00
<mgrwt>
<rscale>  0 0.56994570E+04</rscale>
<asrwt>0</asrwt>
<pdfrwt beam="1">  1        2 0.64539565E+00 0.56994570E+04</pdfrwt>
<pdfrwt beam="2">  1       -2 0.29782025E+00 0.56994570E+04</pdfrwt>
<totfact> 0.52642436E-03</totfact>
</mgrwt>
</event>
<event>
 8      1 +1.2359593e-08 5.01640100e+03 7.81860800e-03 7.82598200e-02
       -3 -1    0    0    0  501 -0.0000000000e+00 +0.0000000000e+00 +1.2458045113e+03 1.2458045154e+03 1.0100000000e-01 0.0000e+00 1.0000e+00
        3 -1    0    0  501    0 +0.0000000000e+00 -0.0000000000e+00 -5.0498044199e+03 5.0498044209e+03 1.0100000000e-01 0.0000e+00 -1.0000e+00
  1000011  2    1    2    0    0 +1.1032966701e+03 -2.7241242508e+01 -1.7758138359e+03 3.0715586311e+03 2.2501004459e+03 4.6793e+02 0.0000e+00
 -1000011  2    1    2    0    0 -1.1032966701e+03 +2.7241242508e+01 -2.0281860727e+03 3.2240503052e+03 2.2501013305e+03 8.8536e+02 0.0000e+00
       11  1    3    3    0    0 +1.5329648854e-01 -3.5799937570e-02 -9.4674015256e-02 1.8369779240e-01 5.1100000000e-04 0.0000e+00 1.0000e+00
  1000022  1    3    3    0    0 +1.1031433736e+03 -2.7205442570e+01 -1.7757191619e+03 3.0713749333e+03 2.2500000000e+03 0.0000e+00 0.0000e+00
      -11  1    4    4    0    0 +5.1895718256e-03 -2.5569259334e-03 -1.8556494197e-01 1.8565580533e-01 5.1100000000e-04 0.0000e+00 -1.0000e+00
  1000022  1    4    4    0    0 -1.1033018597e+03 +2.7243799434e+01 -2.0280005078e+03 3.2238646494e+03 2.2500000000e+03 0.0000e+00 0.0000e+00
<mgrwt>
<rscale>  0 0.50164008E+04</rscale>
<asrwt>0</asrwt>
<pdfrwt beam="1">  1        3 0.77689298E+00 0.50164008E+04</pdfrwt>
<pdfrwt beam="2">  1       -3 0.19166223E+00 0.50164008E+04</pdfrwt>
<totfact> 0.30323092E-05</totfact>
</mgrwt>
</event>
<event>
 8      1 +1.2359593e-08 4.61934400e+03 7.81860800e-03 7.89007000e-02
        1 -1    0    0  501    0 +0.0000000000e+00 +0.0000000000e+00 +3.3443730137e+03 3.3443730137e+03 5.0400000000e-03 0.0000e+00 1.0000e+00
       -1 -1    0    0    0  501 -0.0000000000e+00 -0.0000000000e+00 -1.5950927869e+03 1.5950927869e+03 5.0400000000e-03 0.0000e+00 -1.0000e+00
  1000011  2    1    2    0    0 -3.9845687031e+02 -2.4872425923e+02 +1.1161350236e+03 2.5552565856e+03 2.2500993740e+03 5.2202e+02 0.0000e+00
 -1000011  2    1    2    0    0 +3.9845687031e+02 +2.4872425923e+02 +6.3314520318e+02 2.3842092150e+03 2.2500997973e+03 1.1451e+02 0.0000e+00
       11  1    3    3    0    0 +5.4569904557e-02 -6.5757931666e-02 +1.3146889678e-04 8.5453250968e-02 5.1100000000e-04 0.0000e+00 1.0000e+00
  1000022  1    3    3    0    0 -3.9851144021e+02 -2.4865850130e+02 +1.1161348921e+03 2.5551711324e+03 2.2500000000e+03 0.0000e+00 0.0000e+00
      -11  1    4    4    0    0 +3.7298345330e-02 +8.8899945177e-02 -3.1326240455e-02 1.0137041402e-01 5.1100000000e-04 0.0000e+00 -1.0000e+00
  1000022  1    4    4    0    0 +3.9841957196e+02 +2.4863535928e+02 +6.3317652942e+02 2.3841078446e+03 2.2500000000e+03 0.0000e+00 0.0000e+00
<mgrwt>
<rscale>  0 0.46193442E+04</rscale>
<asrwt>0</asrwt>
<pdfrwt beam="1">  1        1 0.51451892E+00 0.46193442E+04</pdfrwt>
<pdfrwt beam="2">  1       -1 0.24539889E+00 0.46193442E+04</pdfrwt>
<totfact> 0.18350114E-02</totfact>
</mgrwt>
</event>
<event>
 8      1 +1.2359593e-08 4.61782200e+03 7.81860800e-03 7.89032800e-02
        2 -1    0    0  501    0 +0.0000000000e+00 +0.0000000000e+00 +3.1149185503e+03 3.1149185503e+03 2.5500000000e-03 0.0000e+00 1.0000e+00
       -2 -1    0    0    0  501 -0.0000000000e+00 -0.0000000000e+00 -1.7114638176e+03 1.7114638176e+03 2.5500000000e-03 0.0000e+00 -1.0000e+00
  1000011  2    1    2    0    0 -4.1267231926e+02 -2.9256832024e+02 +8.1726736223e+02 2.4467892636e+03 2.2501015741e+03 7.5193e+02 0.0000e+00
 -1000011  2    1    2    0    0 +4.1267231926e+02 +2.9256832024e+02 +5.8618737049e+02 2.3795931043e+03 2.2501006741e+03 4.8118e+02 0.0000e+00
       11  1    3    3    0    0 +3.4335582494e-02 +2.2960057450e-02 +1.1679033672e-01 1.2388034612e-01 5.1100000000e-04 0.0000e+00 1.0000e+00
  1000022  1    3    3    0    0 -4.1270665485e+02 -2.9259128030e+02 +8.1715057190e+02 2.4466653832e+03 2.2500000000e+03 0.0000e+00 0.0000e+00
      -11  1    4    4    0    0 +8.9184326388e-02 +7.7665853575e-02 -7.0481715231e-03 1.1847263891e-01 5.1100000000e-04 0.0000e+00 -1.0000e+00
  1000022  1    4    4    0    0 +4.1258313494e+02 +2.9249065439e+02 +5.8619441866e+02 2.3794746316e+03 2.2500000000e+03 0.0000e+00 0.0000e+00
<mgrwt>
<rscale>  0 0.46178222E+04</rscale>
<asrwt>0</asrwt>
<pdfrwt beam="1">  1        2 0.47921823E+00 0.46178222E+04</pdfrwt>
<pdfrwt beam="2">  1       -2 0.26330213E+00 0.46178222E+04</pdfrwt>
<totfact> 0.58797107E-02</totfact>
</mgrwt>
</event>
<event>
 8      1 +1.2359593e-08 4.69065400e+03 7.81860800e-03 7.87808300e-02
        2 -1    0    0  501    0 +0.0000000000e+00 +0.0000000000e+00 +2.8811452777e+03 2.8811452777e+03 2.5500000000e-03 0.0000e+00 1.0000e+00
       -2 -1    0    0    0  501 -0.0000000000e+00 -0.0000000000e+00 -1.9091570847e+03 1.9091570847e+03 2.5500000000e-03 0.0000e+00 -1.0000e+00
  1000011  2    1    2    0    0 +4.6835413503e+02 -1.6175143411e+02 +3.8403767269e+01 2.3043307161e+03 2.2500991262e+03 1.7034e+02 0.0000e+00
 -1000011  2    1    2    0    0 -4.6835413503e+02 +1.6175143411e+02 +9.3358442579e+02 2.4859716463e+03 2.2501013363e+03 5.7583e+02 0.0000e+00
       11  1    3    3    0    0 -1.0362820356e-02 -8.9144748222e-02 -4.4559632935e-02 1.0019977952e-01 5.1100000000e-04 0.0000e+00 1.0000e+00
  1000022  1    3    3    0    0 +4.6836449785e+02 -1.6166228937e+02 +3.8448326902e+01 2.3042305164e+03 2.2500000000e+03 0.0000e+00 0.0000e+00
      -11  1    4    4    0    0 +7.4278735900e-02 +4.1431939776e-02 +5.3700262035e-02 1.0058784675e-01 5.1100000000e-04 0.0000e+00 -1.0000e+00
  1000022  1    4    4    0    0 -4.6842841377e+02 +1.6171000217e+02 +9.3353072553e+02 2.4858710584e+03 2.2500000000e+03 0.0000e+00 0.0000e+00
<mgrwt>
<rscale>  0 0.46906541E+04</rscale>
<asrwt>0</asrwt>
<pdfrwt beam="1">  1        2 0.44325312E+00 0.46906541E+04</pdfrwt>
<pdfrwt beam="2">  1       -2 0.29371647E+00 0.46906541E+04</pdfrwt>
<totfact> 0.53446185E-02</totfact>
</mgrwt>
</event>
<event>
 8      1 +1.2359593e-08 4.50957300e+03 7.81860800e-03 7.90896300e-02
       -2 -1    0    0    0  501 -0.0000000000e+00 +0.0000000000e+00 +2.4570813155e+03 2.4570813155e+03 2.5500000000e-03 0.0000e+00 -1.0000e+00
        2 -1    0    0  501    0 +0.0000000000e+00 -0.0000000000e+00 -2.0691465647e+03 2.0691465647e+03 2.5500000000e-03 0.0000e+00 1.0000e+00
  1000011  2    1    2    0    0 +6.9466673630e-01 -9.4643003973e+01 +8.3305439220e+01 2.2536298518e+03 2.2500999827e+03 1.5415e+02 0.0000e+00
 -1000011  2    1    2    0    0 -6.9466673630e-01 +9.4643003973e+01 +3.0462931158e+02 2.2725980283e+03 2.2500988867e+03 4.5130e+02 0.0000e+00
       11  1    3    3    0    0 +7.0176795474e-02 +6.6634069419e-02 -4.5307249916e-03 9.6879666621e-02 5.1100000000e-04 0.0000e+00 1.0000e+00
  1000022  1    3    3    0    0 +6.2448994083e-01 -9.4709638042e+01 +8.3309969945e+01 2.2535329722e+03 2.2500000000e+03 0.0000e+00 0.0000e+00
      -11  1    4    4    0    0 +2.9372855448e-02 -8.0033026084e-02 +5.6165061048e-02 1.0209223575e-01 5.1100000000e-04 0.0000e+00 -1.0000e+00
  1000022  1    4    4    0    0 -7.2403959175e-01 +9.4723036999e+01 +3.0457314651e+02 2.2724959361e+03 2.2500000000e+03 0.0000e+00 0.0000e+00
<mgrwt>
<rscale>  0 0.45095726E+04</rscale>
<asrwt>0</asrwt>
<pdfrwt beam="1">  1        2 0.31833024E+00 0.45095726E+04</pdfrwt>
<pdfrwt beam="2">  1       -2 0.37801251E+00 0.45095726E+04</pdfrwt>
<totfact> 0.47734239E-02</totfact>
</mgrwt>
</event>
<event>
 8      1 +1.2359593e-08 5.48196200e+03 7.81860800e-03 7.75817600e-02
       -2 -1    0    0    0  501 -0.0000000000e+00 +0.0000000000e+00 +3.4800781541e+03 3.4800781541e+03 2.5500000000e-03 0.0000e+00 -1.0000e+00
        2 -1    0    0  501    0 +0.0000000000e+00 -0.0000000000e+00 -2.1588525473e+03 2.1588525473e+03 2.5500000000e-03 0.0000e+00 1.0000e+00
  1000011  2    1    2    0    0 +1.4563454486e+03 +9.1248092824e+01 +7.8041291746e+01 2.6829664309e+03 2.2501000303e+03 8.0756e+01 0.0000e+00
 -1000011  2    1    2    0    0 -1.4563454486e+03 -9.1248092824e+01 +1.2431843151e+03 2.9559642705e+03 2.2500998304e+03 1.6026e+02 0.0000e+00
       11  1    3    3    0    0 +4.8286508697e-02 +8.4669282223e-02 -5.3958372195e-02 1.1141023646e-01 5.1100000000e-04 0.0000e+00 1.0000e+00
  1000022  1    3    3    0    0 +1.4562971621e+03 +9.1163423542e+01 +7.8095250119e+01 2.6828550207e+03 2.2500000000e+03 0.0000e+00 0.0000e+00
      -11  1    4    4    0    0 -4.5879455420e-04 +5.1168430993e-02 +1.0913149470e-01 1.2053365753e-01 5.1100000000e-04 0.0000e+00 -1.0000e+00
  1000022  1    4    4    0    0 -1.4563449898e+03 -9.1299261255e+01 +1.2430751836e+03 2.9558437368e+03 2.2500000000e+03 0.0000e+00 0.0000e+00
<mgrwt>
<rscale>  0 0.54819615E+04</rscale>
<asrwt>0</asrwt>
<pdfrwt beam="1">  1        2 0.33213116E+00 0.54819615E+04</pdfrwt>
<pdfrwt beam="2">  1       -2 0.53539665E+00 0.54819615E+04</pdfrwt>
<totfact> 0.39493070E-03</totfact>
</mgrwt>
</event>
<event>
 8      1 +1.2359593e-08 5.59765300e+03 7.81860800e-03 7.74239300e-02
       -2 -1    0    0    0  501 -0.0000000000e+00 +0.0000000000e+00 +1.8972837815e+03 1.8972837815e+03 2.5500000000e-03 0.0000e+00 -1.0000e+00
        2 -1    0    0  501    0 +0.0000000000e+00 -0.0000000000e+00 -4.1287604776e+03 4.1287604776e+03 2.5500000000e-03 0.0000e+00 1.0000e+00
  1000011  2    1    2    0    0 +1.5185495854e+03 -6.2809683207e+02 -8.3092758777e+02 2.9075529012e+03 2.2500943854e+03 7.1962e+02 0.0000e+00
 -1000011  2    1    2    0    0 -1.5185495854e+03 +6.2809683207e+02 -1.4005491083e+03 3.1184913580e+03 2.2501004580e+03 4.4694e+03 0.0000e+00
       11  1    3    3    0    0 +3.3900821980e-02 -1.8184097893e-02 -1.2441945712e-01 1.3023205962e-01 5.1100000000e-04 0.0000e+00 1.0000e+00
  1000022  1    3    3    0    0 +1.5185156846e+03 -6.2807864797e+02 -8.3080316832e+02 2.9074226691e+03 2.2500000000e+03 0.0000e+00 0.0000e+00
      -11  1    4    4    0    0 -2.0530177469e-02 +7.0782350508e-02 +3.4345189718e-02 8.1311020235e-02 5.1100000000e-04 0.0000e+00 -1.0000e+00
  1000022  1    4    4    0    0 -1.5185290553e+03 +6.2802604972e+02 -1.4005834535e+03 3.1184100470e+03 2.2500000000e+03 0.0000e+00 0.0000e+00
<mgrwt>
<rscale>  0 0.55976532E+04</rscale>
<asrwt>0</asrwt>
<pdfrwt beam="1">  1        2 0.63519392E+00 0.55976532E+04</pdfrwt>
<pdfrwt beam="2">  1       -2 0.29188981E+00 0.55976532E+04</pdfrwt>
<totfact> 0.65801976E-03</totfact>
</mgrwt>
</event>
<event>
 8      1 +1.2359593e-08 5.79671400e+03 7.81860800e-03 7.71613100e-02
       -2 -1    0    0    0  501 -0.0000000000e+00 +0.0000000000e+00 +2.8219311893e+03 2.8219311893e+03 2.5500000000e-03 0.0000e+00 -1.0000e+00
        2 -1    0    0  501    0 +0.0000000000e+00 -0.0000000000e+00 -2.9768523412e+03 2.9768523412e+03 2.5500000000e-03 0.0000e+00 1.0000e+00
  1000011  2    1    2    0    0 -1.3662622457e+03 +9.0001748720e+02 -8.9064491012e+02 2.9211137014e+03 2.2501006420e+03 2.0921e+02 0.0000e+00
 -1000011  2    1    2    0    0 +1.3662622457e+03 -9.0001748720e+02 +7.3572375813e+02 2.8776698292e+03 2.2501089298e+03 9.4671e+01 0.0000e+00
       11  1    3    3    0    0 -2.8022185669e-02 +5.1094191727e-02 -1.3579988621e-01 1.4777594246e-01 5.1100000000e-04 0.0000e+00 1.0000e+00
  1000022  1    3    3    0    0 -1.3662342235e+03 +8.9996639301e+02 -8.9050911023e+02 2.9209659254e+03 2.2500000000e+03 0.0000e+00 0.0000e+00
      -11  1    4    4    0    0 -4.9559755831e-02 -4.4707600346e-02 -2.1506651246e-02 7.0126569987e-02 5.1100000000e-04 0.0000e+00 -1.0000e+00
  1000022  1    4    4    0    0 +1.3663118054e+03 -8.9997277960e+02 +7.3574526478e+02 2.8775997026e+03 2.2500000000e+03 0.0000e+00 0.0000e+00
<mgrwt>
<rscale>  0 0.57967137E+04</rscale>
<asrwt>0</asrwt>
<pdfrwt beam="1">  1        2 0.45797728E+00 0.57967137E+04</pdfrwt>
<pdfrwt beam="2">  1       -2 0.43414326E+00 0.57967137E+04</pdfrwt>
<totfact> 0.54553753E-03</totfact>
</mgrwt>
</event>
<event>
 8      1 +1.2359593e-08 5.36062100e+03 7.81860800e-03 7.77516400e-02
       -2 -1    0    0    0  501 -0.0000000000e+00 +0.0000000000e+00 +2.1783797838e+03 2.1783797838e+03 2.5500000000e-03 0.0000e+00 -1.0000e+00
        2 -1    0    0  501    0 +0.0000000000e+00 -0.0000000000e+00 -3.2978930211e+03 3.2978930211e+03 2.5500000000e-03 0.0000e+00 1.0000e+00
  1000011  2    1    2    0    0 +1.0256397296e+03 +1.0089291705e+02 +4.9151689177e+02 2.5232258500e+03 2.2501030198e+03 5.3664e+01 0.0000e+00
 -1000011  2    1    2    0    0 -1.0256397296e+03 -1.0089291705e+02 -1.6110301291e+03 2.9530469548e+03 2.2501004433e+03 5.7848e+02 0.0000e+00
       11  1    3    3    0    0 +6.2671301402e-02 -8.5777385945e-02 -2.4775512446e-02 1.0908500553e-01 5.1100000000e-04 0.0000e+00 1.0000e+00
  1000022  1    3    3    0    0 +1.0255770583e+03 +1.0097869443e+02 +4.9154166728e+02 2.5231167650e+03 2.2500000000e+03 0.0000e+00 0.0000e+00
      -11  1    4    4    0    0 +4.8773919412e-02 -1.8945630637e-02 +1.2009859064e-02 5.3687333789e-02 5.1100000000e-04 0.0000e+00 -1.0000e+00
  1000022  1    4    4    0    0 -1.0256885035e+03 -1.0087397142e+02 -1.6110421390e+03 2.9529932675e+03 2.2500000000e+03 0.0000e+00 0.0000e+00
<mgrwt>
<rscale>  0 0.53606207E+04</rscale>
<asrwt>0</asrwt>
<pdfrwt beam="1">  1        2 0.50736816E+00 0.53606207E+04</pdfrwt>
<pdfrwt beam="2">  1       -2 0.33513535E+00 0.53606207E+04</pdfrwt>
<totfact> 0.15229104E-02</totfact>
</mgrwt>
</event>
<event>
 8      1 +1.2359593e-08 5.19822600e+03 7.81860800e-03 7.79863600e-02
       -2 -1    0    0    0  501 -0.0000000000e+00 +0.0000000000e+00 +3.4673982950e+03 3.4673982950e+03 2.5500000000e-03 0.0000e+00 -1.0000e+00
        2 -1    0    0  501    0 +0.0000000000e+00 -0.0000000000e+00 -1.9482584700e+03 1.9482584700e+03 2.5500000000e-03 0.0000e+00 1.0000e+00
  1000011  2    1    2    0    0 +1.2062581903e+03 +3.1874928802e+02 +1.1434637535e+03 2.8155155256e+03 2.2501018619e+03 3.2800e+02 0.0000e+00
 -1000011  2    1    2    0    0 -1.2062581903e+03 -3.1874928802e+02 +3.7567607147e+02 2.6001412394e+03 2.2500982254e+03 9.2605e+02 0.0000e+00
       11  1    3    3    0    0 +1.2646825166e-01 +9.8406329248e-02 +8.2479725352e-02 1.8022538788e-01 5.1100000000e-04 0.0000e+00 1.0000e+00
  1000022  1    3    3    0    0 +1.2061317220e+03 +3.1865088169e+02 +1.1433812738e+03 2.8153353002e+03 2.2500000000e+03 0.0000e+00 0.0000e+00
      -11  1    4    4    0    0 -1.0555054728e-01 -9.8210146923e-02 +5.3278942741e-02 1.5370444849e-01 5.1100000000e-04 0.0000e+00 -1.0000e+00
  1000022  1    4    4    0    0 -1.2061526397e+03 -3.1865107787e+02 +3.7562279253e+02 2.5999875350e+03 2.2500000000e+03 0.0000e+00 0.0000e+00
<mgrwt>
<rscale>  0 0.51982259E+04</rscale>
<asrwt>0</asrwt>
<pdfrwt beam="1">  1        2 0.29973208E+00 0.51982259E+04</pdfrwt>
<pdfrwt beam="2">  1       -2 0.53344588E+00 0.51982259E+04</pdfrwt>
<totfact> 0.54148827E-03</totfact>
</mgrwt>
</event>
<event>
 8      1 +1.2359593e-08 4.60564100e+03 7.81860800e-03 7.89239900e-02
       -2 -1    0    0    0  501 -0.0000000000e+00 +0.0000000000e+00 +1.3115277897e+03 1.3115277897e+03 2.5500000000e-03 0.0000e+00 -1.0000e+00
        2 -1    0    0  501    0 +0.0000000000e+00 -0.0000000000e+00 -4.0433623691e+03 4.0433623691e+03 2.5500000000e-03 0.0000e+00 1.0000e+00
  1000011  2    1    2    0    0 -4.4214939893e+02 -1.7249542865e+02 -1.5071776144e+03 2.7495137569e+03 2.2501090583e+03 8.7917e+02 0.0000e+00
 -1000011  2    1    2    0    0 +4.4214939893e+02 +1.7249542865e+02 -1.2246569650e+03 2.6053764019e+03 2.2501001644e+03 1.2808e+03 0.0000e+00
       11  1    3    3    0    0 +6.8609312521e-02 -1.8176282334e-02 -1.3746473176e-01 1.5470755614e-01 5.1100000000e-04 0.0000e+00 1.0000e+00
  1000022  1    3    3    0    0 -4.4221800824e+02 -1.7247725237e+02 -1.5070401497e+03 2.7493590493e+03 2.2500000000e+03 0.0000e+00 0.0000e+00
      -11  1    4    4    0    0 +7.8409396852e-02 -4.3605367919e-02 +1.3252998461e-02 9.0693794137e-02 5.1100000000e-04 0.0000e+00 -1.0000e+00
  1000022  1    4    4    0    0 +4.4207098953e+02 +1.7253903402e+02 -1.2246702180e+03 2.6052857081e+03 2.2500000000e+03 0.0000e+00 0.0000e+00
<mgrwt>
<rscale>  0 0.46056409E+04</rscale>
<asrwt>0</asrwt>
<pdfrwt beam="1">  1        2 0.62205574E+00 0.46056409E+04</pdfrwt>
<pdfrwt beam="2">  1       -2 0.20177351E+00 0.46056409E+04</pdfrwt>
<totfact> 0.30535301E-02</totfact>
</mgrwt>
</event>
<event>
 8      1 +1.2359593e-08 4.70495400e+03 7.81860800e-03 7.87570600e-02
        2 -1    0    0  501    0 +0.0000000000e+00 +0.0000000000e+00 +3.4196282777e+03 3.4196282777e+03 2.5500000000e-03 0.0000e+00 1.0000e+00
       -2 -1    0    0    0  501 -0.0000000000e+00 -0.0000000000e+00 -1.6183479953e+03 1.6183479953e+03 2.5500000000e-03 0.0000e+00 -1.0000e+00
  1000011  2    1    2    0    0 -5.7095138649e+02 +1.9147411659e+02 +5.4785077295e+02 2.3928516250e+03 2.2501001326e+03 2.5078e+03 0.0000e+00
 -1000011  2    1    2    0    0 +5.7095138649e+02 -1.9147411659e+02 +1.2534295095e+03 2.6451246479e+03 2.2501002300e+03 2.3092e+03 0.0000e+00
       11  1    3    3    0    0 +3.9108119979e-02 -4.8101893922e-02 +7.6544213540e-02 9.8501341489e-02 5.1100000000e-04 0.0000e+00 1.0000e+00
  1000022  1    3    3    0    0 -5.7099049461e+02 +1.9152221849e+02 +5.4777422873e+02 2.3927531237e+03 2.2500000000e+03 0.0000e+00 0.0000e+00
      -11  1    4    4    0    0 -7.4938789221e-02 -4.8433610898e-03 +1.5135779335e-02 7.6607003166e-02 5.1100000000e-04 0.0000e+00 -1.0000e+00
  1000022  1    4    4    0    0 +5.7102632528e+02 -1.9146927323e+02 +1.2534143737e+03 2.6450480409e+03 2.2500000000e+03 0.0000e+00 0.0000e+00
<mgrwt>
<rscale>  0 0.47049542E+04</rscale>
<asrwt>0</asrwt>
<pdfrwt beam="1">  1        2 0.52609665E+00 0.47049542E+04</pdfrwt>
<pdfrwt beam="2">  1       -2 0.24897662E+00 0.47049542E+04</pdfrwt>
<totfact> 0.44841701E-02</totfact>
</mgrwt>
</event>
<event>
 8      1 +1.2359593e-08 6.96443100e+03 7.81860800e-03 7.58111500e-02
        2 -1    0    0  501    0 +0.0000000000e+00 +0.0000000000e+00 +3.7718418005e+03 3.7718418005e+03 2.5500000000e-03 0.0000e+00 1.0000e+00
       -2 -1    0    0    0  501 -0.0000000000e+00 -0.0000000000e+00 -3.2148288990e+03 3.2148288990e+03 2.5500000000e-03 0.0000e+00 -1.0000e+00
  1000011  2    1    2    0    0 +1.9710264360e+02 -3.9528643405e+02 -2.3505081103e+03 3.2837356370e+03 2.2500956736e+03 2.1554e+03 0.0000e+00
 -1000011  2    1    2    0    0 -1.9710264360e+02 +3.9528643405e+02 +2.9075210118e+03 3.7029350625e+03 2.2500997370e+03 7.6758e+01 0.0000e+00
       11  1    3    3    0    0 -5.4947647809e-02 +5.6368575874e-02 -9.6702268586e-02 1.2469262109e-01 5.1100000000e-04 0.0000e+00 1.0000e+00
  1000022  1    3    3    0    0 +1.9715759125e+02 -3.9534280263e+02 -2.3504114080e+03 3.2836109444e+03 2.2500000000e+03 0.0000e+00 0.0000e+00
      -11  1    4    4    0    0 -9.2097154965e-02 +7.2212769755e-02 +1.2280123916e-01 1.6963777723e-01 5.1100000000e-04 0.0000e+00 -1.0000e+00
  1000022  1    4    4    0    0 -1.9701054645e+02 +3.9521422128e+02 +2.9073982105e+03 3.7027654248e+03 2.2500000000e+03 0.0000e+00 0.0000e+00
<mgrwt>
<rscale>  0 0.69644314E+04</rscale>
<asrwt>0</asrwt>
<pdfrwt beam="1">  1        2 0.58028335E+00 0.69644314E+04</pdfrwt>
<pdfrwt beam="2">  1       -2 0.49458906E+00 0.69644314E+04</pdfrwt>
<totfact> 0.58076264E-04</totfact>
</mgrwt>
</event>
<event>
 8      1 +1.2359593e-08 4.86147100e+03 7.81860800e-03 7.85023900e-02
       -2 -1    0    0    0  501 -0.0000000000e+00 +0.0000000000e+00 +2.3527598977e+03 2.3527598977e+03 2.5500000000e-03 0.0000e+00 -1.0000e+00
        2 -1    0    0  501    0 +0.0000000000e+00 -0.0000000000e+00 -2.5112953682e+03 2.5112953682e+03 2.5500000000e-03 0.0000e+00 1.0000e+00
  1000011  2    1    2    0    0 +2.4746883788e+02 +7.5515145606e+02 +3.8362047061e+02 2.4169422038e+03 2.2501000875e+03 1.2611e+03 0.0000e+00
 -1000011  2    1    2    0    0 -2.4746883788e+02 -7.5515145606e+02 -5.4215594105e+02 2.4471130621e+03 2.2500966039e+03 5.9711e+02 0.0000e+00
       11  1    3    3    0    0 -5.5664604952e-02 -1.7448090331e-03 -5.4916220258e-02 7.8215373538e-02 5.1100000000e-04 0.0000e+00 1.0000e+00
  1000022  1    3    3    0    0 +2.4752450248e+02 +7.5515320087e+02 +3.8367538683e+02 2.4168639884e+03 2.2500000000e+03 0.0000e+00 0.0000e+00
      -11  1    4    4    0    0 +2.4470006078e-02 -3.3955441960e-04 +6.7240763558e-02 7.1557511806e-02 5.1100000000e-04 0.0000e+00 -1.0000e+00
  1000022  1    4    4    0    0 -2.4749330788e+02 -7.5515111651e+02 -5.4222318181e+02 2.4470415046e+03 2.2500000000e+03 0.0000e+00 0.0000e+00
<mgrwt>
<rscale>  0 0.48614710E+04</rscale>
<asrwt>0</asrwt>
<pdfrwt beam="1">  1        2 0.38635314E+00 0.48614710E+04</pdfrwt>
<pdfrwt beam="2">  1       -2 0.36196306E+00 0.48614710E+04</pdfrwt>
<totfact> 0.32982646E-02</totfact>
</mgrwt>
</event>
<event>
 8      1 +1.2359593e-08 4.86944500e+03 7.81860800e-03 7.84896800e-02
        2 -1    0    0  501    0 +0.0000000000e+00 +0.0000000000e+00 +2.1229942613e+03 2.1229942613e+03 2.5500000000e-03 0.0000e+00 1.0000e+00
       -2 -1    0    0    0  501 -0.0000000000e+00 -0.0000000000e+00 -2.7922226581e+03 2.7922226581e+03 2.5500000000e-03 0.0000e+00 -1.0000e+00
  1000011  2    1    2    0    0 +6.8923233171e+02 -5.7226647968e+02 -8.2475327299e+01 2.4232806955e+03 2.2501015575e+03 3.5239e+02 0.0000e+00
 -1000011  2    1    2    0    0 -6.8923233171e+02 +5.7226647968e+02 -5.8675306951e+02 2.4919362238e+03 2.2500970753e+03 1.2541e+03 0.0000e+00
       11  1    3    3    0    0 -1.2037967708e-02 -9.4392302123e-02 -6.5259654017e-02 1.1538588515e-01 5.1100000000e-04 0.0000e+00 1.0000e+00
  1000022  1    3    3    0    0 +6.8924436968e+02 -5.7217208737e+02 -8.2410067645e+01 2.4231653097e+03 2.2500000000e+03 0.0000e+00 0.0000e+00
      -11  1    4    4    0    0 -1.2742865884e-02 +9.5739443431e-02 -9.5120495415e-02 1.3556028644e-01 5.1100000000e-04 0.0000e+00 -1.0000e+00
  1000022  1    4    4    0    0 -6.8921958884e+02 +5.7217074023e+02 -5.8665794901e+02 2.4918006635e+03 2.2500000000e+03 0.0000e+00 0.0000e+00
<mgrwt>
<rscale>  0 0.48694446E+04</rscale>
<asrwt>0</asrwt>
<pdfrwt beam="1">  1        2 0.32661450E+00 0.48694446E+04</pdfrwt>
<pdfrwt beam="2">  1       -2 0.42957272E+00 0.48694446E+04</pdfrwt>
<totfact> 0.19914756E-02</totfact>
</mgrwt>
</event>
<event>
 8      1 +1.2359593e-08 4.77410300e+03 7.81860800e-03 7.86433100e-02
        2 -1    0    0  501    0 +0.0000000000e+00 +0.0000000000e+00 +2.0714069546e+03 2.0714069546e+03 2.5500000000e-03 0.0000e+00 1.0000e+00
       -2 -1    0    0    0  501 -0.0000000000e+00 -0.0000000000e+00 -2.7507944554e+03 2.7507944554e+03 2.5500000000e-03 0.0000e+00 -1.0000e+00
  1000011  2    1    2    0    0 +5.1681034002e+02 -3.0018036939e+02 +1.9275064249e+02 2.3360845245e+03 2.2500970898e+03 5.0924e+01 0.0000e+00
 -1000011  2    1    2    0    0 -5.1681034002e+02 +3.0018036939e+02 -8.7213814321e+02 2.4861168855e+03 2.2501002302e+03 1.1223e+02 0.0000e+00
       11  1    3    3    0    0 +9.5460985607e-02 -8.1301363787e-02 +1.5816044340e-02 1.2638480617e-01 5.1100000000e-04 0.0000e+00 1.0000e+00
  1000022  1    3    3    0    0 +5.1671487904e+02 -3.0009906802e+02 +1.9273482644e+02 2.3359581396e+03 2.2500000000e+03 0.0000e+00 0.0000e+00
      -11  1    4    4    0    0 +3.7505475329e-02 +8.9641155889e-03 -1.2008378421e-01 1.2612450985e-01 5.1100000000e-04 0.0000e+00 -1.0000e+00
  1000022  1    4    4    0    0 -5.1684784550e+02 +3.0017140527e+02 -8.7201805943e+02 2.4859907610e+03 2.2500000000e+03 0.0000e+00 0.0000e+00
<mgrwt>
<rscale>  0 0.47741030E+04</rscale>
<asrwt>0</asrwt>
<pdfrwt beam="1">  1        2 0.31867799E+00 0.47741030E+04</pdfrwt>
<pdfrwt beam="2">  1       -2 0.42319915E+00 0.47741030E+04</pdfrwt>
<totfact> 0.23620656E-02</totfact>
</mgrwt>
</event>
<event>
 8      1 +1.2359593e-08 5.44526900e+03 7.81860800e-03 7.76326500e-02
        2 -1    0    0  501    0 +0.0000000000e+00 +0.0000000000e+00 +4.1871158378e+03 4.1871158378e+03 2.5500000000e-03 0.0000e+00 1.0000e+00
       -2 -1    0    0    0  501 -0.0000000000e+00 -0.0000000000e+00 -1.7703687919e+03 1.7703687919e+03 2.5500000000e-03 0.0000e+00 -1.0000e+00
  1000011  2    1    2    0    0 -7.1538266743e+02 -9.2049826158e+02 +2.2973412330e+03 3.4205002505e+03 2.2501012893e+03 6.0445e+02 0.0000e+00
 -1000011  2    1    2    0    0 +7.1538266743e+02 +9.2049826158e+02 +1.1940581295e+02 2.5369843793e+03 2.2500983494e+03 2.6700e+03 0.0000e+00
       11  1    3    3    0    0 +5.7031754879e-02 -6.9292144707e-02 +1.4616948567e-01 1.7152201521e-01 5.1100000000e-04 0.0000e+00 1.0000e+00
  1000022  1    3    3    0    0 -7.1543969919e+02 -9.2042896943e+02 +2.2971950635e+03 3.4203287285e+03 2.2500000000e+03 0.0000e+00 0.0000e+00
      -11  1    4    4    0    0 -1.3455250493e-02 +1.0928472981e-01 +6.1173780344e-02 1.2596304378e-01 5.1100000000e-04 0.0000e+00 -1.0000e+00
  1000022  1    4    4    0    0 +7.1539612268e+02 +9.2038897685e+02 +1.1934463917e+02 2.5368584162e+03 2.2500000000e+03 0.0000e+00 0.0000e+00
<mgrwt>
<rscale>  0 0.54452692E+04</rscale>
<asrwt>0</asrwt>
<pdfrwt beam="1">  1        2 0.64417167E+00 0.54452692E+04</pdfrwt>
<pdfrwt beam="2">  1       -2 0.27236443E+00 0.54452692E+04</pdfrwt>
<totfact> 0.78083341E-03</totfact>
</mgrwt>
</event>
<event>
 8      1 +1.2359593e-08 4.72452100e+03 7.81860800e-03 7.87246700e-02
        2 -1    0    0  501    0 +0.0000000000e+00 +0.0000000000e+00 +3.1870673006e+03 3.1870673006e+03 2.5500000000e-03 0.0000e+00 1.0000e+00
       -2 -1    0    0    0  501 -0.0000000000e+00 -0.0000000000e+00 -1.7509119795e+03 1.7509119795e+03 2.5500000000e-03 0.0000e+00 -1.0000e+00
  1000011  2    1    2    0    0 -2.3209214129e+02 +1.1840036072e+02 +1.7402068546e+01 2.2652095441e+03 2.2501080061e+03 4.1867e+01 0.0000e+00
 -1000011  2    1    2    0    0 +2.3209214129e+02 -1.1840036072e+02 +1.4187532526e+03 2.6727697359e+03 2.2501004116e+03 3.7822e+02 0.0000e+00
       11  1    3    3    0    0 -1.8236059249e-03 -6.7094970040e-04 +1.0824825357e-01 1.0826689615e-01 5.1100000000e-04 0.0000e+00 1.0000e+00
  1000022  1    3    3    0    0 -2.3209031768e+02 +1.1840103167e+02 +1.7293820292e+01 2.2651012772e+03 2.2500000000e+03 0.0000e+00 0.0000e+00
      -11  1    4    4    0    0 -5.8605827767e-02 +1.6566829240e-02 -2.4560866084e-02 6.5670386645e-02 5.1100000000e-04 0.0000e+00 -1.0000e+00
  1000022  1    4    4    0    0 +2.3215074712e+02 -1.1841692755e+02 +1.4187778134e+03 2.6727040655e+03 2.2500000000e+03 0.0000e+00 0.0000e+00
<mgrwt>
<rscale>  0 0.47245209E+04</rscale>
<asrwt>0</asrwt>
<pdfrwt beam="1">  1        2 0.49031805E+00 0.47245209E+04</pdfrwt>
<pdfrwt beam="2">  1       -2 0.26937107E+00 0.47245209E+04</pdfrwt>
<totfact> 0.48063249E-02</totfact>
</mgrwt>
</event>
<event>
 8      1 +1.2359593e-08 5.11541000e+03 7.81860800e-03 7.81094700e-02
        2 -1    0    0  501    0 +0.0000000000e+00 +0.0000000000e+00 +2.4889391008e+03 2.4889391008e+03 2.5500000000e-03 0.0000e+00 1.0000e+00
       -2 -1    0    0    0  501 -0.0000000000e+00 -0.0000000000e+00 -2.6283705072e+03 2.6283705072e+03 2.5500000000e-03 0.0000e+00 -1.0000e+00
  1000011  2    1    2    0    0 -1.0746037925e+03 +5.2018775756e+02 -3.0115853867e+02 2.5649612449e+03 2.2501024662e+03 1.6454e+03 0.0000e+00
 -1000011  2    1    2    0    0 +1.0746037925e+03 -5.2018775756e+02 +1.6172713222e+02 2.5523483631e+03 2.2501017504e+03 4.8015e+02 0.0000e+00
       11  1    3    3    0    0 -1.3475843911e-01 +2.0355044754e-02 +4.8757685877e-02 1.4474715008e-01 5.1100000000e-04 0.0000e+00 1.0000e+00
  1000022  1    3    3    0    0 -1.0744690340e+03 +5.2016740251e+02 -3.0120729635e+02 2.5648164977e+03 2.2500000000e+03 0.0000e+00 0.0000e+00
      -11  1    4    4    0    0 +9.9196832111e-02 +5.3754427036e-02 -3.5442355789e-02 1.1826229925e-01 5.1100000000e-04 0.0000e+00 -1.0000e+00
  1000022  1    4    4    0    0 +1.0745045956e+03 -5.2024151198e+02 +1.6176257458e+02 2.5522301008e+03 2.2500000000e+03 0.0000e+00 0.0000e+00
<mgrwt>
<rscale>  0 0.51154097E+04</rscale>
<asrwt>0</asrwt>
<pdfrwt beam="1">  1        2 0.38291371E+00 0.51154097E+04</pdfrwt>
<pdfrwt beam="2">  1       -2 0.40436469E+00 0.51154097E+04</pdfrwt>
<totfact> 0.17728052E-02</totfact>
</mgrwt>
</event>
<event>
 8      1 +1.2359593e-08 5.06874900e+03 7.81860800e-03 7.81798900e-02
        2 -1    0    0  501    0 +0.0000000000e+00 +0.0000000000e+00 +4.7068474575e+03 4.7068474575e+03 2.5500000000e-03 0.0000e+00 1.0000e+00
       -2 -1    0    0    0  501 -0.0000000000e+00 -0.0000000000e+00 -1.3646188855e+03 1.3646188855e+03 2.5500000000e-03 0.0000e+00 -1.0000e+00
  1000011  2    1    2    0    0 +3.2949177195e+02 +8.1721509857e+02 +2.5862359788e+03 3.5394944660e+03 2.2501109287e+03 2.2338e+02 0.0000e+00
 -1000011  2    1    2    0    0 -3.2949177195e+02 -8.1721509857e+02 +7.5599259325e+02 2.5319718770e+03 2.2501003177e+03 2.5437e+03 0.0000e+00
       11  1    3    3    0    0 -4.1275776926e-02 -5.4534097030e-03 +2.2894831163e-01 2.3270371605e-01 5.1100000000e-04 0.0000e+00 1.0000e+00
  1000022  1    3    3    0    0 +3.2953304773e+02 +8.1722055198e+02 +2.5860070305e+03 3.5392617623e+03 2.2500000000e+03 0.0000e+00 0.0000e+00
      -11  1    4    4    0    0 -1.0981242586e-02 +4.6707412403e-02 -4.1153390437e-02 6.3214178547e-02 5.1100000000e-04 0.0000e+00 -1.0000e+00
  1000022  1    4    4    0    0 -3.2948079071e+02 -8.1726180598e+02 +7.5603374664e+02 2.5319086629e+03 2.2500000000e+03 0.0000e+00 0.0000e+00
<mgrwt>
<rscale>  0 0.50687485E+04</rscale>
<asrwt>0</asrwt>
<pdfrwt beam="1">  1        2 0.72413038E+00 0.50687485E+04</pdfrwt>
<pdfrwt beam="2">  1       -2 0.20994137E+00 0.50687485E+04</pdfrwt>
<totfact> 0.61816075E-03</totfact>
</mgrwt>
</event>
<event>
 8      1 +1.2359593e-08 4.65871400e+03 7.81860800e-03 7.88342500e-02
        2 -1    0    0  501    0 +0.0000000000e+00 +0.0000000000e+00 +3.5207688922e+03 3.5207688922e+03 2.5500000000e-03 0.0000e+00 1.0000e+00
       -2 -1    0    0    0  501 -0.0000000000e+00 -0.0000000000e+00 -1.5411131547e+03 1.5411131547e+03 2.5500000000e-03 0.0000e+00 -1.0000e+00
  1000011  2    1    2    0    0 -2.4894579010e+02 -3.4352192321e+02 +5.2506684104e+02 2.3491778787e+03 2.2501022643e+03 1.4588e+02 0.0000e+00
 -1000011  2    1    2    0    0 +2.4894579010e+02 +3.4352192321e+02 +1.4545888965e+03 2.7127041682e+03 2.2501008263e+03 1.6558e+01 0.0000e+00
       11  1    3    3    0    0 +3.6028134718e-02 -1.0663106463e-01 +2.7851997440e-02 1.1594914793e-01 5.1100000000e-04 0.0000e+00 1.0000e+00
  1000022  1    3    3    0    0 -2.4898181824e+02 -3.4341529215e+02 +5.2503898905e+02 2.3490619295e+03 2.2500000000e+03 0.0000e+00 0.0000e+00
      -11  1    4    4    0    0 -6.2176247114e-02 -5.0974952371e-02 +2.2341574055e-02 8.3449016190e-02 5.1100000000e-04 0.0000e+00 -1.0000e+00
  1000022  1    4    4    0    0 +2.4900796635e+02 +3.4357289817e+02 +1.4545665549e+03 2.7126207192e+03 2.2500000000e+03 0.0000e+00 0.0000e+00
<mgrwt>
<rscale>  0 0.46587137E+04</rscale>
<asrwt>0</asrwt>
<pdfrwt beam="1">  1        2 0.54165675E+00 0.46587137E+04</pdfrwt>
<pdfrwt beam="2">  1       -2 0.23709433E+00 0.46587137E+04</pdfrwt>
<totfact> 0.45316228E-02</totfact>
</mgrwt>
</event>
<event>
 8      1 +1.2359593e-08 5.55115200e+03 7.81860800e-03 7.74869000e-02
        2 -1    0    0  501    0 +0.0000000000e+00 +0.0000000000e+00 +1.9801296549e+03 1.9801296549e+03 2.5500000000e-03 0.0000e+00 1.0000e+00
       -2 -1    0    0    0  501 -0.0000000000e+00 -0.0000000000e+00 -3.8905647476e+03 3.8905647476e+03 2.5500000000e-03 0.0000e+00 -1.0000e+00
  1000011  2    1    2    0    0 -1.4350297387e+03 -1.9480168180e+02 -1.7547824790e+02 2.6816067801e+03 2.2501031669e+03 6.8743e+02 0.0000e+00
 -1000011  2    1    2    0    0 +1.4350297387e+03 +1.9480168180e+02 -1.7349568448e+03 3.1890876223e+03 2.2500992342e+03 5.5664e+02 0.0000e+00
       11  1    3    3    0    0 -1.5536932611e-01 -5.9708701376e-02 -6.3675960161e-02 1.7821235892e-01 5.1100000000e-04 0.0000e+00 1.0000e+00
  1000022  1    3    3    0    0 -1.4348743694e+03 -1.9474197310e+02 -1.7541457194e+02 2.6814285678e+03 2.2500000000e+03 0.0000e+00 0.0000e+00
      -11  1    4    4    0    0 -2.4082156587e-03 +2.8486185814e-02 -1.4902852943e-01 1.5174658393e-01 5.1100000000e-04 0.0000e+00 -1.0000e+00
  1000022  1    4    4    0    0 +1.4350321469e+03 +1.9477319561e+02 -1.7348078162e+03 3.1889358758e+03 2.2500000000e+03 0.0000e+00 0.0000e+00
<mgrwt>
<rscale>  0 0.55511522E+04</rscale>
<asrwt>0</asrwt>
<pdfrwt beam="1">  1        2 0.30463533E+00 0.55511522E+04</pdfrwt>
<pdfrwt beam="2">  1       -2 0.59854842E+00 0.55511522E+04</pdfrwt>
<totfact> 0.24981527E-03</totfact>
</mgrwt>
</event>
<event>
 8      1 +1.2359593e-08 5.00757200e+03 7.81860800e-03 7.82734000e-02
       -2 -1    0    0    0  501 -0.0000000000e+00 +0.0000000000e+00 +1.6844477465e+03 1.6844477465e+03 2.5500000000e-03 0.0000e+00 -1.0000e+00
        2 -1    0    0  501    0 +0.0000000000e+00 -0.0000000000e+00 -3.7216613264e+03 3.7216613264e+03 2.5500000000e-03 0.0000e+00 1.0000e+00
  1000011  2    1    2    0    0 -5.0445272069e+01 -1.0210210751e+03 -1.4517208587e+03 2.8662651007e+03 2.2501007565e+03 4.1328e+03 0.0000e+00
 -1000011  2    1    2    0    0 +5.0445272069e+01 +1.0210210751e+03 -5.8549272128e+02 2.5398439722e+03 2.2501059787e+03 2.2678e+03 0.0000e+00
       11  1    3    3    0    0 +8.0618161746e-02 -1.0711507296e-01 -8.8852122243e-02 1.6083496961e-01 5.1100000000e-04 0.0000e+00 1.0000e+00
  1000022  1    3    3    0    0 -5.0525890231e+01 -1.0209139601e+03 -1.4516320066e+03 2.8661042657e+03 2.2500000000e+03 0.0000e+00 0.0000e+00
      -11  1    4    4    0    0 -4.3228164035e-02 -5.6442026308e-02 -3.0544428880e-02 7.7379579021e-02 5.1100000000e-04 0.0000e+00 -1.0000e+00
  1000022  1    4    4    0    0 +5.0488500233e+01 +1.0210775172e+03 -5.8546217685e+02 2.5397665927e+03 2.2500000000e+03 0.0000e+00 0.0000e+00
<mgrwt>
<rscale>  0 0.50075719E+04</rscale>
<asrwt>0</asrwt>
<pdfrwt beam="1">  1        2 0.57256328E+00 0.50075719E+04</pdfrwt>
<pdfrwt beam="2">  1       -2 0.25914581E+00 0.50075719E+04</pdfrwt>
<totfact> 0.23041847E-02</totfact>
</mgrwt>
</event>
<event>
 8      1 +1.2359593e-08 4.76506800e+03 7.81860800e-03 7.86580600e-02
        2 -1    0    0  501    0 +0.0000000000e+00 +0.0000000000e+00 +3.4015497329e+03 3.4015497329e+03 2.5500000000e-03 0.0000e+00 1.0000e+00
       -2 -1    0    0    0  501 -0.0000000000e+00 -0.0000000000e+00 -1.6687887959e+03 1.6687887959e+03 2.5500000000e-03 0.0000e+00 -1.0000e+00
  1000011  2    1    2    0    0 -5.2572386731e+02 +2.5310983681e+02 +1.4224141163e+03 2.7251909046e+03 2.2501007475e+03 3.3332e+01 0.0000e+00
 -1000011  2    1    2    0    0 +5.2572386731e+02 -2.5310983681e+02 +3.1034682069e+02 2.3451476241e+03 2.2501004546e+03 5.8517e+02 0.0000e+00
       11  1    3    3    0    0 -7.9297302421e-02 +9.1406135808e-02 +1.1532905156e-01 1.6716517293e-01 5.1100000000e-04 0.0000e+00 1.0000e+00
  1000022  1    3    3    0    0 -5.2564457000e+02 +2.5301843067e+02 +1.4222987872e+03 2.7250237394e+03 2.2500000000e+03 0.0000e+00 0.0000e+00
      -11  1    4    4    0    0 -6.1218399158e-02 -6.6795758811e-02 +1.5349162929e-02 9.1897897401e-02 5.1100000000e-04 0.0000e+00 -1.0000e+00
  1000022  1    4    4    0    0 +5.2578508571e+02 -2.5304304105e+02 +3.1033147152e+02 2.3450557262e+03 2.2500000000e+03 0.0000e+00 0.0000e+00
<mgrwt>
<rscale>  0 0.47650679E+04</rscale>
<asrwt>0</asrwt>
<pdfrwt beam="1">  1        2 0.52331534E+00 0.47650679E+04</pdfrwt>
<pdfrwt beam="2">  1       -2 0.25673674E+00 0.47650679E+04</pdfrwt>
<totfact> 0.41146501E-02</totfact>
</mgrwt>
</event>
<event>
 8      1 +1.2359593e-08 4.77111500e+03 7.81860800e-03 7.86481900e-02
        1 -1    0    0  501    0 +0.0000000000e+00 +0.0000000000e+00 +3.5509710804e+03 3.5509710804e+03 5.0400000000e-03 0.0000e+00 1.0000e+00
       -1 -1    0    0    0  501 -0.0000000000e+00 -0.0000000000e+00 -1.6026276811e+03 1.6026276811e+03 5.0400000000e-03 0.0000e+00 -1.0000e+00
  1000011  2    1    2    0    0 -3.4877994517e+02 +2.7632430443e+02 +1.6824332876e+03 2.8445601474e+03 2.2500973520e+03 2.8854e+02 0.0000e+00
 -1000011  2    1    2    0    0 +3.4877994517e+02 -2.7632430443e+02 +2.6591011160e+02 2.3090386141e+03 2.2500996784e+03 8.8521e+02 0.0000e+00
       11  1    3    3    0    0 -2.6010048880e-02 +9.2548204969e-02 +1.4896115540e-01 1.7728897147e-01 5.1100000000e-04 0.0000e+00 1.0000e+00
  1000022  1    3    3    0    0 -3.4875393512e+02 +2.7623175622e+02 +1.6822843265e+03 2.8443828585e+03 2.2500000000e+03 0.0000e+00 0.0000e+00
      -11  1    4    4    0    0 -2.6353306105e-02 -7.2206430805e-02 -5.6341068318e-02 9.5303945492e-02 5.1100000000e-04 0.0000e+00 -1.0000e+00
  1000022  1    4    4    0    0 +3.4880629847e+02 -2.7625209800e+02 +2.6596645266e+02 2.3089433101e+03 2.2500000000e+03 0.0000e+00 0.0000e+00
<mgrwt>
<rscale>  0 0.47711150E+04</rscale>
<asrwt>0</asrwt>
<pdfrwt beam="1">  1        1 0.54630324E+00 0.47711150E+04</pdfrwt>
<pdfrwt beam="2">  1       -1 0.24655810E+00 0.47711150E+04</pdfrwt>
<totfact> 0.12274217E-02</totfact>
</mgrwt>
</event>
<event>
 8      1 +1.2359593e-08 5.19108500e+03 7.81860800e-03 7.79968800e-02
       -2 -1    0    0    0  501 -0.0000000000e+00 +0.0000000000e+00 +3.3451858299e+03 3.3451858299e+03 2.5500000000e-03 0.0000e+00 -1.0000e+00
        2 -1    0    0  501    0 +0.0000000000e+00 -0.0000000000e+00 -2.0138911598e+03 2.0138911598e+03 2.5500000000e-03 0.0000e+00 1.0000e+00
  1000011  2    1    2    0    0 -1.2226510039e+03 +9.8044101860e+01 +2.4074702937e+02 2.5739849781e+03 2.2501003116e+03 1.5347e+03 0.0000e+00
 -1000011  2    1    2    0    0 +1.2226510039e+03 -9.8044101860e+01 +1.0905476407e+03 2.7850920116e+03 2.2501011607e+03 2.5409e+03 0.0000e+00
       11  1    3    3    0    0 -9.1303414767e-03 -1.7440169586e-02 -8.1398661605e-02 8.3746794287e-02 5.1100000000e-04 0.0000e+00 1.0000e+00
  1000022  1    3    3    0    0 -1.2226418735e+03 +9.8061542030e+01 +2.4082842803e+02 2.5739012313e+03 2.2500000000e+03 0.0000e+00 0.0000e+00
      -11  1    4    4    0    0 -1.9401233382e-02 -2.1492177366e-02 +1.1570273599e-01 1.1927156104e-01 5.1100000000e-04 0.0000e+00 -1.0000e+00
  1000022  1    4    4    0    0 +1.2226704051e+03 -9.8022609683e+01 +1.0904319380e+03 2.7849727400e+03 2.2500000000e+03 0.0000e+00 0.0000e+00
<mgrwt>
<rscale>  0 0.51910847E+04</rscale>
<asrwt>0</asrwt>
<pdfrwt beam="1">  1        2 0.30982941E+00 0.51910847E+04</pdfrwt>
<pdfrwt beam="2">  1       -2 0.51464397E+00 0.51910847E+04</pdfrwt>
<totfact> 0.63819799E-03</totfact>
</mgrwt>
</event>
<event>
 8      1 +1.2359593e-08 4.90566800e+03 7.81860800e-03 7.84322600e-02
       -2 -1    0    0    0  501 -0.0000000000e+00 +0.0000000000e+00 +3.4851734569e+03 3.4851734569e+03 2.5500000000e-03 0.0000e+00 -1.0000e+00
        2 -1    0    0  501    0 +0.0000000000e+00 -0.0000000000e+00 -1.7262829089e+03 1.7262829089e+03 2.5500000000e-03 0.0000e+00 1.0000e+00
  1000011  2    1    2    0    0 -6.9231902518e+02 -3.5252982570e+02 +2.5109664973e+02 2.3936625109e+03 2.2501083925e+03 1.8930e+03 0.0000e+00
 -1000011  2    1    2    0    0 +6.9231902518e+02 +3.5252982570e+02 +1.5077938983e+03 2.8177938550e+03 2.2500970777e+03 1.3810e+03 0.0000e+00
       11  1    3    3    0    0 +5.3416676788e-02 -6.7491841112e-02 -3.4562534735e-02 9.2754080680e-02 5.1100000000e-04 0.0000e+00 1.0000e+00
  1000022  1    3    3    0    0 -6.9237244186e+02 -3.5246233386e+02 +2.5113121227e+02 2.3935697568e+03 2.2500000000e+03 0.0000e+00 0.0000e+00
      -11  1    4    4    0    0 +4.8681892880e-02 +8.0638481501e-02 +1.5850907897e-01 1.8438514109e-01 5.1100000000e-04 0.0000e+00 -1.0000e+00
  1000022  1    4    4    0    0 +6.9227034329e+02 +3.5244918722e+02 +1.5076353892e+03 2.8176094698e+03 2.2500000000e+03 0.0000e+00 0.0000e+00
<mgrwt>
<rscale>  0 0.49056683E+04</rscale>
<asrwt>0</asrwt>
<pdfrwt beam="1">  1        2 0.26558199E+00 0.49056683E+04</pdfrwt>
<pdfrwt beam="2">  1       -2 0.53618053E+00 0.49056683E+04</pdfrwt>
<totfact> 0.70942959E-03</totfact>
</mgrwt>
</event>
<event>
 8      1 +1.2359593e-08 4.63585200e+03 7.81860800e-03 7.88727500e-02
        2 -1    0    0  501    0 +0.0000000000e+00 +0.0000000000e+00 +3.6252356972e+03 3.6252356972e+03 2.5500000000e-03 0.0000e+00 1.0000e+00
       -2 -1    0    0    0  501 -0.0000000000e+00 -0.0000000000e+00 -1.4820499850e+03 1.4820499850e+03 2.5500000000e-03 0.0000e+00 -1.0000e+00
  1000011  2    1    2    0    0 +1.1855365173e+02 -5.4274423865e+02 +1.1098614541e+03 2.5697021086e+03 2.2501000428e+03 4.7888e+02 0.0000e+00
 -1000011  2    1    2    0    0 -1.1855365173e+02 +5.4274423865e+02 +1.0333242581e+03 2.5375835737e+03 2.2500989076e+03 1.0787e+03 0.0000e+00
       11  1    3    3    0    0 -5.5118442133e-02 -9.5190448858e-02 +9.8706148516e-02 1.4779184313e-01 5.1100000000e-04 0.0000e+00 1.0000e+00
  1000022  1    3    3    0    0 +1.1860877017e+02 -5.4264904820e+02 +1.1097627480e+03 2.5695543167e+03 2.2500000000e+03 0.0000e+00 0.0000e+00
      -11  1    4    4    0    0 +1.0710753319e-02 -7.6503743635e-02 +2.7028847289e-02 8.1843524603e-02 5.1100000000e-04 0.0000e+00 -1.0000e+00
  1000022  1    4    4    0    0 -1.1856436248e+02 +5.4282074239e+02 +1.0332972293e+03 2.5375017301e+03 2.2500000000e+03 0.0000e+00 0.0000e+00
<mgrwt>
<rscale>  0 0.46358518E+04</rscale>
<asrwt>0</asrwt>
<pdfrwt beam="1">  1        2 0.55772857E+00 0.46358518E+04</pdfrwt>
<pdfrwt beam="2">  1       -2 0.22800769E+00 0.46358518E+04</pdfrwt>
<totfact> 0.43553032E-02</totfact>
</mgrwt>
</event>
<event>
 8      1 +1.2359593e-08 4.73656600e+03 7.81860800e-03 7.87048100e-02
        2 -1    0    0  501    0 +0.0000000000e+00 +0.0000000000e+00 +4.1466097355e+03 4.1466097355e+03 2.5500000000e-03 0.0000e+00 1.0000e+00
       -2 -1    0    0    0  501 -0.0000000000e+00 -0.0000000000e+00 -1.3526144671e+03 1.3526144671e+03 2.5500000000e-03 0.0000e+00 -1.0000e+00
  1000011  2    1    2    0    0 -2.6329501032e+02 +4.8798929782e+02 +8.3017797604e+02 2.4616268038e+03 2.2501007159e+03 5.2525e+02 0.0000e+00
 -1000011  2    1    2    0    0 +2.6329501032e+02 -4.8798929782e+02 +1.9638172924e+03 3.0375973989e+03 2.2501026160e+03 6.5685e+02 0.0000e+00
       11  1    3    3    0    0 -9.3754784611e-02 -3.1008620720e-02 +6.3254625224e-02 1.1727277007e-01 5.1100000000e-04 0.0000e+00 1.0000e+00
  1000022  1    3    3    0    0 -2.6320125554e+02 +4.8802030644e+02 +8.3011472141e+02 2.4615095310e+03 2.2500000000e+03 0.0000e+00 0.0000e+00
      -11  1    4    4    0    0 +8.5275420258e-02 +4.7579649089e-02 +6.0519302485e-02 1.1488501731e-01 5.1100000000e-04 0.0000e+00 -1.0000e+00
  1000022  1    4    4    0    0 +2.6320973490e+02 -4.8803687747e+02 +1.9637567731e+03 3.0374825139e+03 2.2500000000e+03 0.0000e+00 0.0000e+00
<mgrwt>
<rscale>  0 0.47365660E+04</rscale>
<asrwt>0</asrwt>
<pdfrwt beam="1">  1        2 0.63793995E+00 0.47365660E+04</pdfrwt>
<pdfrwt beam="2">  1       -2 0.20809454E+00 0.47365660E+04</pdfrwt>
<totfact> 0.22507717E-02</totfact>
</mgrwt>
</event>
<event>
 8      1 +1.2359593e-08 5.12905300e+03 7.81860800e-03 7.80890200e-02
        2 -1    0    0  501    0 +0.0000000000e+00 +0.0000000000e+00 +3.4928711075e+03 3.4928711075e+03 2.5500000000e-03 0.0000e+00 1.0000e+00
       -2 -1    0    0    0  501 -0.0000000000e+00 -0.0000000000e+00 -1.8829195460e+03 1.8829195460e+03 2.5500000000e-03 0.0000e+00 -1.0000e+00
  1000011  2    1    2    0    0 -4.9916471161e+02 +9.3532364610e+02 +1.4593994860e+03 2.8838824910e+03 2.2500968046e+03 2.3402e+03 0.0000e+00
 -1000011  2    1    2    0    0 +4.9916471161e+02 -9.3532364610e+02 +1.5055207553e+02 2.4919081626e+03 2.2500988047e+03 2.4901e+03 0.0000e+00
       11  1    3    3    0    0 -7.1372061278e-02 -4.0372004753e-02 +8.3558853022e-02 1.1707353597e-01 5.1100000000e-04 0.0000e+00 1.0000e+00
  1000022  1    3    3    0    0 -4.9909333955e+02 +9.3536401811e+02 +1.4593159271e+03 2.8837654175e+03 2.2500000000e+03 0.0000e+00 0.0000e+00
      -11  1    4    4    0    0 -3.2837218579e-02 -5.6507327061e-02 -7.4795913521e-02 9.9327994237e-02 5.1100000000e-04 0.0000e+00 -1.0000e+00
  1000022  1    4    4    0    0 +4.9919754883e+02 -9.3526713877e+02 +1.5062687144e+02 2.4918088346e+03 2.2500000000e+03 0.0000e+00 0.0000e+00
<mgrwt>
<rscale>  0 0.51290527E+04</rscale>
<asrwt>0</asrwt>
<pdfrwt beam="1">  1        2 0.53736478E+00 0.51290527E+04</pdfrwt>
<pdfrwt beam="2">  1       -2 0.28967993E+00 0.51290527E+04</pdfrwt>
<totfact> 0.21738623E-02</totfact>
</mgrwt>
</event>
<event>
 8      1 +1.2359593e-08 4.91174000e+03 7.81860800e-03 7.84226800e-02
       -2 -1    0    0    0  501 -0.0000000000e+00 +0.0000000000e+00 +2.2629270046e+03 2.2629270046e+03 2.5500000000e-03 0.0000e+00 -1.0000e+00
        2 -1    0    0  501    0 +0.0000000000e+00 -0.0000000000e+00 -2.6652640707e+03 2.6652640707e+03 2.5500000000e-03 0.0000e+00 1.0000e+00
  1000011  2    1    2    0    0 +6.8688481877e+02 -1.7045965499e+02 -8.8718664449e+02 2.5201026985e+03 2.2501000468e+03 1.5333e+02 0.0000e+00
 -1000011  2    1    2    0    0 -6.8688481877e+02 +1.7045965499e+02 +4.8484957840e+02 2.4080883768e+03 2.2500985019e+03 1.1158e+03 0.0000e+00
       11  1    3    3    0    0 +8.5727724295e-02 -8.7786805899e-02 -8.1590019696e-02 1.4735317525e-01 5.1100000000e-04 0.0000e+00 1.0000e+00
  1000022  1    3    3    0    0 +6.8679909104e+02 -1.7037186818e+02 -8.8710505447e+02 2.5199553454e+03 2.2500000000e+03 0.0000e+00 0.0000e+00
      -11  1    4    4    0    0 -7.0181077439e-02 +9.7281441460e-02 +4.4212679507e-02 1.2784398371e-01 5.1100000000e-04 0.0000e+00 -1.0000e+00
  1000022  1    4    4    0    0 -6.8681463769e+02 +1.7036237355e+02 +4.8480536572e+02 2.4079605328e+03 2.2500000000e+03 0.0000e+00 0.0000e+00
<mgrwt>
<rscale>  0 0.49117402E+04</rscale>
<asrwt>0</asrwt>
<pdfrwt beam="1">  1        2 0.41004063E+00 0.49117402E+04</pdfrwt>
<pdfrwt beam="2">  1       -2 0.34814262E+00 0.49117402E+04</pdfrwt>
<totfact> 0.32632856E-02</totfact>
</mgrwt>
</event>
<event>
 8      1 +1.2359593e-08 5.18927100e+03 7.81860800e-03 7.79995600e-02
       -2 -1    0    0    0  501 -0.0000000000e+00 +0.0000000000e+00 +2.5892480252e+03 2.5892480252e+03 2.5500000000e-03 0.0000e+00 -1.0000e+00
        2 -1    0    0  501    0 +0.0000000000e+00 -0.0000000000e+00 -2.6000346095e+03 2.6000346095e+03 2.5500000000e-03 0.0000e+00 1.0000e+00
  1000011  2    1    2    0    0 -1.9420131375e+02 -8.5406385203e+02 +9.4437142397e+02 2.5926679233e+03 2.2501000778e+03 7.9324e+02 0.0000e+00
 -1000011  2    1    2    0    0 +1.9420131375e+02 +8.5406385203e+02 -9.5515800826e+02 2.5966147114e+03 2.2500982034e+03 1.3953e+03 0.0000e+00
       11  1    3    3    0    0 +5.1184061926e-02 +4.8550735833e-02 +1.2873115270e-02 7.1714434275e-02 5.1100000000e-04 0.0000e+00 1.0000e+00
  1000022  1    3    3    0    0 -1.9425249781e+02 -8.5411240277e+02 +9.4435855085e+02 2.5925962088e+03 2.2500000000e+03 0.0000e+00 0.0000e+00
      -11  1    4    4    0    0 +5.0486421362e-02 +1.3012610031e-01 -8.1663809601e-02 1.6171245900e-01 5.1100000000e-04 0.0000e+00 -1.0000e+00
  1000022  1    4    4    0    0 +1.9415082733e+02 +8.5393372593e+02 -9.5507634445e+02 2.5964529990e+03 2.2500000000e+03 0.0000e+00 0.0000e+00
<mgrwt>
<rscale>  0 0.51892714E+04</rscale>
<asrwt>0</asrwt>
<pdfrwt beam="1">  1        2 0.40000533E+00 0.51892714E+04</pdfrwt>
<pdfrwt beam="2">  1       -2 0.39834585E+00 0.51892714E+04</pdfrwt>
<totfact> 0.16620915E-02</totfact>
</mgrwt>
</event>
<event>
 8      1 +1.2359593e-08 4.85647000e+03 7.81860800e-03 7.85103800e-02
       -2 -1    0    0    0  501 -0.0000000000e+00 +0.0000000000e+00 +2.3494101034e+03 2.3494101034e+03 2.5500000000e-03 0.0000e+00 -1.0000e+00
        2 -1    0    0  501    0 +0.0000000000e+00 -0.0000000000e+00 -2.5097044163e+03 2.5097044163e+03 2.5500000000e-03 0.0000e+00 1.0000e+00
  1000011  2    1    2    0    0 +6.6200244663e+02 -1.6244401533e+01 +5.4857736353e+02 2.4088168317e+03 2.2501000611e+03 1.6035e+03 0.0000e+00
 -1000011  2    1    2    0    0 -6.6200244663e+02 +1.6244401533e+01 -7.0887167639e+02 2.4502976880e+03 2.2500996836e+03 4.5394e+02 0.0000e+00
       11  1    3    3    0    0 -7.0898949079e-02 +1.7761133105e-02 +3.8575598562e-02 8.2646576879e-02 5.1100000000e-04 0.0000e+00 1.0000e+00
  1000022  1    3    3    0    0 +6.6207334558e+02 -1.6262162666e+01 +5.4853878793e+02 2.4087341852e+03 2.2500000000e+03 0.0000e+00 0.0000e+00
      -11  1    4    4    0    0 -3.5620419996e-02 -8.3826832923e-02 +2.3017861328e-02 9.3945914672e-02 5.1100000000e-04 0.0000e+00 -1.0000e+00
  1000022  1    4    4    0    0 -6.6196682621e+02 +1.6328228365e+01 -7.0889469425e+02 2.4502037421e+03 2.2500000000e+03 0.0000e+00 0.0000e+00
<mgrwt>
<rscale>  0 0.48564699E+04</rscale>
<asrwt>0</asrwt>
<pdfrwt beam="1">  1        2 0.38610837E+00 0.48564699E+04</pdfrwt>
<pdfrwt beam="2">  1       -2 0.36144771E+00 0.48564699E+04</pdfrwt>
<totfact> 0.33316613E-02</totfact>
</mgrwt>
</event>
<event>
 8      1 +1.2359593e-08 4.54480700e+03 7.81860800e-03 7.90283900e-02
        2 -1    0    0  501    0 +0.0000000000e+00 +0.0000000000e+00 +4.0813815935e+03 4.0813815935e+03 2.5500000000e-03 0.0000e+00 1.0000e+00
       -2 -1    0    0    0  501 -0.0000000000e+00 -0.0000000000e+00 -1.2652131383e+03 1.2652131383e+03 2.5500000000e-03 0.0000e+00 -1.0000e+00
  1000011  2    1    2    0    0 -1.2439718506e+02 +2.3728147947e+00 +1.0643335662e+03 2.4922368154e+03 2.2501018008e+03 2.0406e+02 0.0000e+00
 -1000011  2    1    2    0    0 +1.2439718506e+02 -2.3728147947e+00 +1.7518348890e+03 2.8543579164e+03 2.2501007415e+03 1.7644e+03 0.0000e+00
       11  1    3    3    0    0 -3.4476094101e-03 -9.8963624984e-02 +7.3814712231e-02 1.2350934196e-01 5.1100000000e-04 0.0000e+00 1.0000e+00
  1000022  1    3    3    0    0 -1.2439373745e+02 +2.4717784197e+00 +1.0642597515e+03 2.4921133061e+03 2.2500000000e+03 0.0000e+00 0.0000e+00
      -11  1    4    4    0    0 +3.3474486973e-02 +3.1002353556e-02 -3.6510923425e-02 5.8437963852e-02 5.1100000000e-04 0.0000e+00 -1.0000e+00
  1000022  1    4    4    0    0 +1.2436371057e+02 -2.4038171482e+00 +1.7518713999e+03 2.8542994784e+03 2.2500000000e+03 0.0000e+00 0.0000e+00
<mgrwt>
<rscale>  0 0.45448070E+04</rscale>
<asrwt>0</asrwt>
<pdfrwt beam="1">  1        2 0.62790485E+00 0.45448070E+04</pdfrwt>
<pdfrwt beam="2">  1       -2 0.19464818E+00 0.45448070E+04</pdfrwt>
<totfact> 0.31799752E-02</totfact>
</mgrwt>
</event>
<event>
 8      1 +1.2359593e-08 4.59322600e+03 7.81860800e-03 7.89451600e-02
       -2 -1    0    0    0  501 -0.0000000000e+00 +0.0000000000e+00 +1.7668992060e+03 1.7668992060e+03 2.5500000000e-03 0.0000e+00 -1.0000e+00
        2 -1    0    0  501    0 +0.0000000000e+00 -0.0000000000e+00 -2.9851346187e+03 2.9851346187e+03 2.5500000000e-03 0.0000e+00 1.0000e+00
  1000011  2    1    2    0    0 -6.0404525487e+01 +1.7797455028e+02 -1.7489772530e+02 2.2646996380e+03 2.2501003508e+03 4.1759e+02 0.0000e+00
 -1000011  2    1    2    0    0 +6.0404525487e+01 -1.7797455028e+02 -1.0433376874e+03 2.4873341868e+03 2.2501009265e+03 1.1932e+03 0.0000e+00
       11  1    3    3    0    0 +4.2082264175e-02 -7.1272319850e-02 -5.0316120201e-02 9.6863995518e-02 5.1100000000e-04 0.0000e+00 1.0000e+00
  1000022  1    3    3    0    0 -6.0446607751e+01 +1.7804582260e+02 -1.7484740918e+02 2.2646027740e+03 2.2500000000e+03 0.0000e+00 0.0000e+00
      -11  1    4    4    0    0 -8.7074206736e-02 +3.8493051825e-02 -4.5173915921e-02 1.0537825140e-01 5.1100000000e-04 0.0000e+00 -1.0000e+00
  1000022  1    4    4    0    0 +6.0491599694e+01 -1.7801304333e+02 -1.0432925135e+03 2.4872288085e+03 2.2500000000e+03 0.0000e+00 0.0000e+00
<mgrwt>
<rscale>  0 0.45932263E+04</rscale>
<asrwt>0</asrwt>
<pdfrwt beam="1">  1        2 0.45925148E+00 0.45932263E+04</pdfrwt>
<pdfrwt beam="2">  1       -2 0.27183065E+00 0.45932263E+04</pdfrwt>
<totfact> 0.63158545E-02</totfact>
</mgrwt>
</event>
<event>
 8      1 +1.2359593e-08 5.64627900e+03 7.81860800e-03 7.73587600e-02
        2 -1    0    0  501    0 +0.0000000000e+00 +0.0000000000e+00 +2.5862421721e+03 2.5862421721e+03 2.5500000000e-03 0.0000e+00 1.0000e+00
       -2 -1    0    0    0  501 -0.0000000000e+00 -0.0000000000e+00 -3.0817361410e+03 3.0817361410e+03 2.5500000000e-03 0.0000e+00 -1.0000e+00
  1000011  2    1    2    0    0 +8.7809698322e+01 -1.6230722426e+03 -7.6463980939e+02 2.8791678944e+03 2.2500799271e+03 1.0994e+02 0.0000e+00
 -1000011  2    1    2    0    0 -8.7809698322e+01 +1.6230722426e+03 +2.6914584046e+02 2.7888104186e+03 2.2501000022e+03 1.0352e+02 0.0000e+00
       11  1    3    3    0    0 +6.8519680304e-02 -4.1046286714e-02 +2.0075847927e-02 8.2359241677e-02 5.1100000000e-04 0.0000e+00 1.0000e+00
  1000022  1    3    3    0    0 +8.7741178642e+01 -1.6230311963e+03 -7.6465988524e+02 2.8790855352e+03 2.2500000000e+03 0.0000e+00 0.0000e+00
      -11  1    4    4    0    0 +5.2085879790e-02 +6.3737605200e-02 +9.4400879272e-02 1.2524858511e-01 5.1100000000e-04 0.0000e+00 -1.0000e+00
  1000022  1    4    4    0    0 -8.7861784202e+01 +1.6230085050e+03 +2.6905143958e+02 2.7886851700e+03 2.2500000000e+03 0.0000e+00 0.0000e+00
<mgrwt>
<rscale>  0 0.56462788E+04</rscale>
<asrwt>0</asrwt>
<pdfrwt beam="1">  1        2 0.39788341E+00 0.56462788E+04</pdfrwt>
<pdfrwt beam="2">  1       -2 0.47411325E+00 0.56462788E+04</pdfrwt>
<totfact> 0.52051370E-03</totfact>
</mgrwt>
</event>
<event>
 8      1 +1.2359593e-08 5.02882400e+03 7.81860800e-03 7.82407600e-02
       -2 -1    0    0    0  501 -0.0000000000e+00 +0.0000000000e+00 +4.8430820113e+03 4.8430820113e+03 2.5500000000e-03 0.0000e+00 -1.0000e+00
        2 -1    0    0  501    0 +0.0000000000e+00 -0.0000000000e+00 -1.3054225359e+03 1.3054225359e+03 2.5500000000e-03 0.0000e+00 1.0000e+00
  1000011  2    1    2    0    0 +4.1594105576e+02 +4.7272856276e+02 +2.9045401286e+03 3.7277046049e+03 2.2500997771e+03 5.1610e+02 0.0000e+00
 -1000011  2    1    2    0    0 -4.1594105576e+02 -4.7272856276e+02 +6.3311934678e+02 2.4207999422e+03 2.2501006637e+03 3.8642e+02 0.0000e+00
       11  1    3    3    0    0 -2.7761006342e-02 -5.1574722429e-02 +1.8890684372e-01 1.9777937610e-01 5.1100000000e-04 0.0000e+00 1.0000e+00
  1000022  1    3    3    0    0 +4.1596881676e+02 +4.7278013749e+02 +2.9043512218e+03 3.7275068255e+03 2.2500000000e+03 0.0000e+00 0.0000e+00
      -11  1    4    4    0    0 +1.5188093698e-02 -1.1653419090e-01 +2.3363389543e-02 1.1982071797e-01 5.1100000000e-04 0.0000e+00 -1.0000e+00
  1000022  1    4    4    0    0 -4.1595624385e+02 -4.7261202857e+02 +6.3309598339e+02 2.4206801215e+03 2.2500000000e+03 0.0000e+00 0.0000e+00
<mgrwt>
<rscale>  0 0.50288243E+04</rscale>
<asrwt>0</asrwt>
<pdfrwt beam="1">  1        2 0.20083424E+00 0.50288243E+04</pdfrwt>
<pdfrwt beam="2">  1       -2 0.74508953E+00 0.50288243E+04</pdfrwt>
<totfact> 0.18091458E-03</totfact>
</mgrwt>
</event>
<event>
 8      1 +1.2359593e-08 4.59480200e+03 7.81860800e-03 7.89424700e-02
       -2 -1    0    0    0  501 -0.0000000000e+00 +0.0000000000e+00 +2.5881248813e+03 2.5881248813e+03 2.5500000000e-03 0.0000e+00 -1.0000e+00
        2 -1    0    0  501    0 +0.0000000000e+00 -0.0000000000e+00 -2.0393341975e+03 2.0393341975e+03 2.5500000000e-03 0.0000e+00 1.0000e+00
  1000011  2    1    2    0    0 -1.8814841574e+02 -4.0308461116e+02 +1.4216702081e+02 2.2980454897e+03 2.2500943494e+03 1.7604e+03 0.0000e+00
 -1000011  2    1    2    0    0 +1.8814841574e+02 +4.0308461116e+02 +4.0662366297e+02 2.3294135890e+03 2.2500995167e+03 7.9623e+01 0.0000e+00
       11  1    3    3    0    0 -1.0008038366e-01 +3.3846243935e-03 +3.6752426251e-03 1.0020632440e-01 5.1100000000e-04 0.0000e+00 1.0000e+00
  1000022  1    3    3    0    0 -1.8804833536e+02 -4.0308799579e+02 +1.4216334556e+02 2.2979452834e+03 2.2500000000e+03 0.0000e+00 0.0000e+00
      -11  1    4    4    0    0 -5.1586333282e-02 -7.6033856071e-03 +9.3366799994e-02 1.0694195229e-01 5.1100000000e-04 0.0000e+00 -1.0000e+00
  1000022  1    4    4    0    0 +1.8820000207e+02 +4.0309221455e+02 +4.0653029617e+02 2.3293066470e+03 2.2500000000e+03 0.0000e+00 0.0000e+00
<mgrwt>
<rscale>  0 0.45948021E+04</rscale>
<asrwt>0</asrwt>
<pdfrwt beam="1">  1        2 0.31374372E+00 0.45948021E+04</pdfrwt>
<pdfrwt beam="2">  1       -2 0.39817306E+00 0.45948021E+04</pdfrwt>
<totfact> 0.36451110E-02</totfact>
</mgrwt>
</event>
<event>
 8      1 +1.2359593e-08 5.08698600e+03 7.81860800e-03 7.81522700e-02
        2 -1    0    0  501    0 +0.0000000000e+00 +0.0000000000e+00 +1.7103572251e+03 1.7103572251e+03 2.5500000000e-03 0.0000e+00 1.0000e+00
       -2 -1    0    0    0  501 -0.0000000000e+00 -0.0000000000e+00 -3.7824600507e+03 3.7824600507e+03 2.5500000000e-03 0.0000e+00 -1.0000e+00
  1000011  2    1    2    0    0 -5.5240861317e+02 +1.0464581038e+03 -1.1209367143e+03 2.7784308042e+03 2.2500997260e+03 4.3864e+02 0.0000e+00
 -1000011  2    1    2    0    0 +5.5240861317e+02 -1.0464581038e+03 -9.5116611124e+02 2.7143864716e+03 2.2500993550e+03 1.3511e+03 0.0000e+00
       11  1    3    3    0    0 -8.1887234840e-02 +1.4080555845e-02 +3.2516455371e-02 8.9226464051e-02 5.1100000000e-04 0.0000e+00 1.0000e+00
  1000022  1    3    3    0    0 -5.5232672594e+02 +1.0464440232e+03 -1.1209692308e+03 2.7783415777e+03 2.2500000000e+03 0.0000e+00 0.0000e+00
      -11  1    4    4    0    0 -7.5845077142e-02 -1.9365623711e-02 -4.4066009193e-02 8.9830825619e-02 5.1100000000e-04 0.0000e+00 -1.0000e+00
  1000022  1    4    4    0    0 +5.5248445825e+02 -1.0464387382e+03 -9.5112204523e+02 2.7142966408e+03 2.2500000000e+03 0.0000e+00 0.0000e+00
<mgrwt>
<rscale>  0 0.50869865E+04</rscale>
<asrwt>0</asrwt>
<pdfrwt beam="1">  1        2 0.26313188E+00 0.50869865E+04</pdfrwt>
<pdfrwt beam="2">  1       -2 0.58191693E+00 0.50869865E+04</pdfrwt>
<totfact> 0.42672160E-03</totfact>
</mgrwt>
</event>
<event>
 8      1 +1.2359593e-08 5.19749100e+03 7.81860800e-03 7.79874400e-02
        2 -1    0    0  501    0 +0.0000000000e+00 +0.0000000000e+00 +3.1847500266e+03 3.1847500266e+03 2.5500000000e-03 0.0000e+00 1.0000e+00
       -2 -1    0    0    0  501 -0.0000000000e+00 -0.0000000000e+00 -2.1205680047e+03 2.1205680047e+03 2.5500000000e-03 0.0000e+00 -1.0000e+00
  1000011  2    1    2    0    0 +5.7052964882e+01 +1.2930192456e+03 +4.0576686714e+02 2.6273286237e+03 2.2501233602e+03 1.7933e+02 0.0000e+00
 -1000011  2    1    2    0    0 -5.7052964882e+01 -1.2930192456e+03 +6.5841515480e+02 2.6779894077e+03 2.2501028735e+03 3.6703e+02 0.0000e+00
       11  1    3    3    0    0 +1.0132312912e-01 +1.5578902714e-01 +4.7900853467e-02 1.9191495519e-01 5.1100000000e-04 0.0000e+00 1.0000e+00
  1000022  1    3    3    0    0 +5.6951641753e+01 +1.2928634566e+03 +4.0571896628e+02 2.6271367087e+03 2.2500000000e+03 0.0000e+00 0.0000e+00
      -11  1    4    4    0    0 -8.4978191136e-02 -1.0599247271e-01 -1.2267188499e-02 1.3640543143e-01 5.1100000000e-04 0.0000e+00 -1.0000e+00
  1000022  1    4    4    0    0 -5.6967986691e+01 -1.2929132531e+03 +6.5842742199e+02 2.6778530022e+03 2.2500000000e+03 0.0000e+00 0.0000e+00
<mgrwt>
<rscale>  0 0.51974913E+04</rscale>
<asrwt>0</asrwt>
<pdfrwt beam="1">  1        2 0.48996154E+00 0.51974913E+04</pdfrwt>
<pdfrwt beam="2">  1       -2 0.32624123E+00 0.51974913E+04</pdfrwt>
<totfact> 0.20812175E-02</totfact>
</mgrwt>
</event>
<event>
 8      1 +1.2359593e-08 4.74777300e+03 7.81860800e-03 7.86863900e-02
        2 -1    0    0  501    0 +0.0000000000e+00 +0.0000000000e+00 +2.4345613660e+03 2.4345613660e+03 2.5500000000e-03 0.0000e+00 1.0000e+00
       -2 -1    0    0    0  501 -0.0000000000e+00 -0.0000000000e+00 -2.3147241233e+03 2.3147241233e+03 2.5500000000e-03 0.0000e+00 -1.0000e+00
  1000011  2    1    2    0    0 -6.0810524198e+02 -1.1564554788e+02 -3.7523172435e+02 2.3636640224e+03 2.2500984169e+03 2.4673e+01 0.0000e+00
 -1000011  2    1    2    0    0 +6.0810524198e+02 +1.1564554788e+02 +4.9506896706e+02 2.3856214668e+03 2.2500956919e+03 1.4166e+03 0.0000e+00
       11  1    3    3    0    0 -6.6580828255e-02 +1.1015560654e-02 +7.2182620531e-02 9.8817715058e-02 5.1100000000e-04 0.0000e+00 1.0000e+00
  1000022  1    3    3    0    0 -6.0803866115e+02 -1.1565656344e+02 -3.7530390697e+02 2.3635652047e+03 2.2500000000e+03 0.0000e+00 0.0000e+00
      -11  1    4    4    0    0 +5.9322828767e-02 +1.2577857954e-02 -6.8795406785e-02 9.1708611260e-02 5.1100000000e-04 0.0000e+00 -1.0000e+00
  1000022  1    4    4    0    0 +6.0804591915e+02 +1.1563297003e+02 +4.9513776247e+02 2.3855297582e+03 2.2500000000e+03 0.0000e+00 0.0000e+00
<mgrwt>
<rscale>  0 0.47477733E+04</rscale>
<asrwt>0</asrwt>
<pdfrwt beam="1">  1        2 0.37454790E+00 0.47477733E+04</pdfrwt>
<pdfrwt beam="2">  1       -2 0.35611140E+00 0.47477733E+04</pdfrwt>
<totfact> 0.40153847E-02</totfact>
</mgrwt>
</event>
<event>
 8      1 +1.2359593e-08 5.18292900e+03 7.81860800e-03 7.80089200e-02
       -2 -1    0    0    0  501 -0.0000000000e+00 +0.0000000000e+00 +2.2821801418e+03 2.2821801418e+03 2.5500000000e-03 0.0000e+00 -1.0000e+00
        2 -1    0    0  501    0 +0.0000000000e+00 -0.0000000000e+00 -2.9426629655e+03 2.9426629655e+03 2.5500000000e-03 0.0000e+00 1.0000e+00
  1000011  2    1    2    0    0 -9.3385876271e+02 -8.4909389423e+02 -5.7649093298e+02 2.6435518456e+03 2.2501048719e+03 2.7390e+03 0.0000e+00
 -1000011  2    1    2    0    0 +9.3385876271e+02 +8.4909389423e+02 -8.3991890748e+01 2.5812912617e+03 2.2501016222e+03 1.8684e+02 0.0000e+00
       11  1    3    3    0    0 -4.0938604962e-02 +2.7687032576e-02 -1.0743608319e-01 1.1825952022e-01 5.1100000000e-04 0.0000e+00 1.0000e+00
  1000022  1    3    3    0    0 -9.3381782411e+02 -8.4912158127e+02 -5.7638349690e+02 2.6434335861e+03 2.2500000000e+03 0.0000e+00 0.0000e+00
      -11  1    4    4    0    0 -2.9719921188e-03 +2.2223530154e-02 +8.9138221323e-02 9.1916273072e-02 5.1100000000e-04 0.0000e+00 -1.0000e+00
  1000022  1    4    4    0    0 +9.3386173470e+02 +8.4907167070e+02 -8.4081028969e+01 2.5811993455e+03 2.2500000000e+03 0.0000e+00 0.0000e+00
<mgrwt>
<rscale>  0 0.51829285E+04</rscale>
<asrwt>0</asrwt>
<pdfrwt beam="1">  1        2 0.45271738E+00 0.51829285E+04</pdfrwt>
<pdfrwt beam="2">  1       -2 0.35110463E+00 0.51829285E+04</pdfrwt>
<totfact> 0.20765562E-02</totfact>
</mgrwt>
</event>
<event>
 8      1 +1.2359593e-08 5.79781500e+03 7.81860800e-03 7.71598800e-02
        2 -1    0    0  501    0 +0.0000000000e+00 +0.0000000000e+00 +2.5138533299e+03 2.5138533299e+03 2.5500000000e-03 0.0000e+00 1.0000e+00
       -2 -1    0    0    0  501 -0.0000000000e+00 -0.0000000000e+00 -3.3429412401e+03 3.3429412401e+03 2.5500000000e-03 0.0000e+00 -1.0000e+00
  1000011  2    1    2    0    0 -6.6488192159e+02 +1.6810010933e+03 -1.4181938833e+02 2.8897914352e+03 2.2500998099e+03 2.5562e+02 0.0000e+00
 -1000011  2    1    2    0    0 +6.6488192159e+02 -1.6810010933e+03 -6.8726852187e+02 2.9670031347e+03 2.2500970945e+03 1.8380e+02 0.0000e+00
       11  1    3    3    0    0 -3.8460844763e-02 +4.2316693837e-03 -8.4770357107e-02 9.3184859078e-02 5.1100000000e-04 0.0000e+00 1.0000e+00
  1000022  1    3    3    0    0 -6.6484346075e+02 +1.6809968617e+03 -1.4173461797e+02 2.8896982504e+03 2.2500000000e+03 0.0000e+00 0.0000e+00
      -11  1    4    4    0    0 -5.8838297945e-02 -7.1005355490e-02 -7.2928557624e-02 1.1756930352e-01 5.1100000000e-04 0.0000e+00 -1.0000e+00
  1000022  1    4    4    0    0 +6.6494075989e+02 -1.6809300880e+03 -6.8719559331e+02 2.9668855654e+03 2.2500000000e+03 0.0000e+00 0.0000e+00
<mgrwt>
<rscale>  0 0.57978147E+04</rscale>
<asrwt>0</asrwt>
<pdfrwt beam="1">  1        2 0.38674666E+00 0.57978147E+04</pdfrwt>
<pdfrwt beam="2">  1       -2 0.51429866E+00 0.57978147E+04</pdfrwt>
<totfact> 0.31940392E-03</totfact>
</mgrwt>
</event>
<event>
 8      1 +1.2359593e-08 5.63637200e+03 7.81860800e-03 7.73719800e-02
       -2 -1    0    0    0  501 -0.0000000000e+00 +0.0000000000e+00 +2.0938591600e+03 2.0938591600e+03 2.5500000000e-03 0.0000e+00 1.0000e+00
        2 -1    0    0  501    0 +0.0000000000e+00 -0.0000000000e+00 -3.7930787646e+03 3.7930787646e+03 2.5500000000e-03 0.0000e+00 -1.0000e+00
  1000011  2    1    2    0    0 -1.3042190668e+03 +9.1879891220e+02 -2.4595073949e+02 2.7692269036e+03 2.2500993450e+03 1.6418e+03 0.0000e+00
 -1000011  2    1    2    0    0 +1.3042190668e+03 -9.1879891220e+02 -1.4532688651e+03 3.1177110210e+03 2.2501006202e+03 6.2529e+02 0.0000e+00
       11  1    3    3    0    0 -1.3075590708e-01 -2.7650645826e-02 -1.3303170890e-02 1.3430897531e-01 5.1100000000e-04 0.0000e+00 1.0000e+00
  1000022  1    3    3    0    0 -1.3040883109e+03 +9.1882656284e+02 -2.4593743632e+02 2.7690925946e+03 2.2500000000e+03 0.0000e+00 0.0000e+00
      -11  1    4    4    0    0 +1.8195381335e-02 -5.5211638622e-02 -1.6178633011e-01 1.7191414794e-01 5.1100000000e-04 0.0000e+00 -1.0000e+00
  1000022  1    4    4    0    0 +1.3042008714e+03 -9.1874370056e+02 -1.4531070787e+03 3.1175391068e+03 2.2500000000e+03 0.0000e+00 0.0000e+00
<mgrwt>
<rscale>  0 0.56363721E+04</rscale>
<asrwt>0</asrwt>
<pdfrwt beam="1">  1        2 0.58355058E+00 0.56363721E+04</pdfrwt>
<pdfrwt beam="2">  1       -2 0.32213218E+00 0.56363721E+04</pdfrwt>
<totfact> 0.79646797E-03</totfact>
</mgrwt>
</event>
<event>
 8      1 +1.2359593e-08 4.59560200e+03 7.81860800e-03 7.89411000e-02
        2 -1    0    0  501    0 +0.0000000000e+00 +0.0000000000e+00 +3.3502378120e+03 3.3502378120e+03 2.5500000000e-03 0.0000e+00 1.0000e+00
       -2 -1    0    0    0  501 -0.0000000000e+00 -0.0000000000e+00 -1.5759742229e+03 1.5759742229e+03 2.5500000000e-03 0.0000e+00 -1.0000e+00
  1000011  2    1    2    0    0 +4.6428450990e+02 -3.4111025989e+01 +9.0248169601e+02 2.4686326138e+03 2.2501000205e+03 6.1860e+01 0.0000e+00
 -1000011  2    1    2    0    0 -4.6428450990e+02 +3.4111025989e+01 +8.7178189313e+02 2.4575794211e+03 2.2501042806e+03 1.1557e+02 0.0000e+00
       11  1    3    3    0    0 -2.8208054231e-02 +3.2727511359e-02 +1.2300741965e-01 1.3037588006e-01 5.1100000000e-04 0.0000e+00 1.0000e+00
  1000022  1    3    3    0    0 +4.6431271795e+02 -3.4143753500e+01 +9.0235868859e+02 2.4685022380e+03 2.2500000000e+03 0.0000e+00 0.0000e+00
      -11  1    4    4    0    0 +2.0859588824e-02 +7.9225578897e-02 -2.1999674795e-02 8.4829602934e-02 5.1100000000e-04 0.0000e+00 -1.0000e+00
  1000022  1    4    4    0    0 -4.6430536949e+02 +3.4031800410e+01 +8.7180389280e+02 2.4574945915e+03 2.2500000000e+03 0.0000e+00 0.0000e+00
<mgrwt>
<rscale>  0 0.45956016E+04</rscale>
<asrwt>0</asrwt>
<pdfrwt beam="1">  1        2 0.51542120E+00 0.45956016E+04</pdfrwt>
<pdfrwt beam="2">  1       -2 0.24245758E+00 0.45956016E+04</pdfrwt>
<totfact> 0.55346825E-02</totfact>
</mgrwt>
</event>
<event>
 8      1 +1.2359593e-08 4.65204900e+03 7.81860800e-03 7.88454500e-02
       -2 -1    0    0    0  501 -0.0000000000e+00 +0.0000000000e+00 +2.3114053188e+03 2.3114053188e+03 2.5500000000e-03 0.0000e+00 -1.0000e+00
        2 -1    0    0  501    0 +0.0000000000e+00 -0.0000000000e+00 -2.3407365839e+03 2.3407365839e+03 2.5500000000e-03 0.0000e+00 1.0000e+00
  1000011  2    1    2    0    0 -1.6865340756e+02 +2.6133597406e+01 -5.7888362410e+02 2.3296233579e+03 2.2500915098e+03 6.6700e+02 0.0000e+00
 -1000011  2    1    2    0    0 +1.6865340756e+02 -2.6133597406e+01 +5.4955235899e+02 2.3225185449e+03 2.2501016998e+03 1.0871e+03 0.0000e+00
       11  1    3    3    0    0 +4.5105279138e-02 -4.6038850738e-03 -1.0017532866e-01 1.0995926120e-01 5.1100000000e-04 0.0000e+00 1.0000e+00
  1000022  1    3    3    0    0 -1.6869851283e+02 +2.6138201291e+01 -5.7878344877e+02 2.3295133986e+03 2.2500000000e+03 0.0000e+00 0.0000e+00
      -11  1    4    4    0    0 -6.1470694268e-02 -4.4935596460e-02 +8.6101433227e-02 1.1494160006e-01 5.1100000000e-04 0.0000e+00 -1.0000e+00
  1000022  1    4    4    0    0 +1.6871487825e+02 -2.6088661809e+01 +5.4946625756e+02 2.3224036033e+03 2.2500000000e+03 0.0000e+00 0.0000e+00
<mgrwt>
<rscale>  0 0.46520494E+04</rscale>
<asrwt>0</asrwt>
<pdfrwt beam="1">  1        2 0.36011332E+00 0.46520494E+04</pdfrwt>
<pdfrwt beam="2">  1       -2 0.35560082E+00 0.46520494E+04</pdfrwt>
<totfact> 0.46134229E-02</totfact>
</mgrwt>
</event>
<event>
 8      1 +1.2359593e-08 4.76849400e+03 7.81860800e-03 7.86524600e-02
       -2 -1    0    0    0  501 -0.0000000000e+00 +0.0000000000e+00 +2.7852138138e+03 2.7852138138e+03 2.5500000000e-03 0.0000e+00 -1.0000e+00
        2 -1    0    0  501    0 +0.0000000000e+00 -0.0000000000e+00 -2.0410047054e+03 2.0410047054e+03 2.5500000000e-03 0.0000e+00 1.0000e+00
  1000011  2    1    2    0    0 +4.9591837597e+01 +3.1495504641e+01 +1.1678976364e+03 2.5358208718e+03 2.2501002839e+03 3.1795e+02 0.0000e+00
 -1000011  2    1    2    0    0 -4.9591837597e+01 -3.1495504641e+01 -4.2368852800e+02 2.2903976473e+03 2.2501017970e+03 3.0958e+03 0.0000e+00
       11  1    3    3    0    0 +5.8736775723e-02 -2.8900695273e-02 -3.4375326615e-02 7.3940401635e-02 5.1100000000e-04 0.0000e+00 1.0000e+00
  1000022  1    3    3    0    0 +4.9533100821e+01 +3.1524405336e+01 +1.1679320117e+03 2.5357469314e+03 2.2500000000e+03 0.0000e+00 0.0000e+00
      -11  1    4    4    0    0 +2.5447263163e-03 -9.6176426168e-02 -5.6959223932e-02 1.1180784569e-01 5.1100000000e-04 0.0000e+00 -1.0000e+00
  1000022  1    4    4    0    0 -4.9594382323e+01 -3.1399328214e+01 -4.2363156877e+02 2.2902858395e+03 2.2500000000e+03 0.0000e+00 0.0000e+00
<mgrwt>
<rscale>  0 0.47684943E+04</rscale>
<asrwt>0</asrwt>
<pdfrwt beam="1">  1        2 0.31400072E+00 0.47684943E+04</pdfrwt>
<pdfrwt beam="2">  1       -2 0.42849443E+00 0.47684943E+04</pdfrwt>
<totfact> 0.22672155E-02</totfact>
</mgrwt>
</event>
<event>
 8      1 +1.2359593e-08 5.17053000e+03 7.81860800e-03 7.80272700e-02
        2 -1    0    0  501    0 +0.0000000000e+00 +0.0000000000e+00 +3.1970812527e+03 3.1970812527e+03 2.5500000000e-03 0.0000e+00 1.0000e+00
       -2 -1    0    0    0  501 -0.0000000000e+00 -0.0000000000e+00 -2.0905303560e+03 2.0905303560e+03 2.5500000000e-03 0.0000e+00 -1.0000e+00
  1000011  2    1    2    0    0 -9.1646016285e+02 -1.2023683469e+02 +1.4484815255e+03 2.8311502472e+03 2.2501015235e+03 7.3766e+02 0.0000e+00
 -1000011  2    1    2    0    0 +9.1646016285e+02 +1.2023683469e+02 -3.4193062883e+02 2.4564613614e+03 2.2500954954e+03 9.7114e+02 0.0000e+00
       11  1    3    3    0    0 -1.0799469307e-02 -3.5701694322e-02 +1.6705008155e-01 1.7116433603e-01 5.1100000000e-04 0.0000e+00 1.0000e+00
  1000022  1    3    3    0    0 -9.1644936338e+02 -1.2020113300e+02 +1.4483144755e+03 2.8309790829e+03 2.2500000000e+03 0.0000e+00 0.0000e+00
      -11  1    4    4    0    0 +1.3731343728e-01 +1.6144049138e-02 -4.7012158425e-02 1.4603429074e-01 5.1100000000e-04 0.0000e+00 -1.0000e+00
  1000022  1    4    4    0    0 +9.1632284942e+02 +1.2022069064e+02 -3.4188361667e+02 2.4563153271e+03 2.2500000000e+03 0.0000e+00 0.0000e+00
<mgrwt>
<rscale>  0 0.51705301E+04</rscale>
<asrwt>0</asrwt>
<pdfrwt beam="1">  1        2 0.49185865E+00 0.51705301E+04</pdfrwt>
<pdfrwt beam="2">  1       -2 0.32162006E+00 0.51705301E+04</pdfrwt>
<totfact> 0.21868684E-02</totfact>
</mgrwt>
</event>
<event>
 8      1 +1.2359593e-08 4.70045700e+03 7.81860800e-03 7.87645300e-02
        2 -1    0    0  501    0 +0.0000000000e+00 +0.0000000000e+00 +2.5461035166e+03 2.5461035166e+03 2.5500000000e-03 0.0000e+00 1.0000e+00
       -2 -1    0    0    0  501 -0.0000000000e+00 -0.0000000000e+00 -2.1694223747e+03 2.1694223747e+03 2.5500000000e-03 0.0000e+00 -1.0000e+00
  1000011  2    1    2    0    0 -2.1036010647e+02 +3.6131074192e+02 +7.2468615065e+02 2.4006070759e+03 2.2500994399e+03 2.2006e+02 0.0000e+00
 -1000011  2    1    2    0    0 +2.1036010647e+02 -3.6131074192e+02 -3.4800500881e+02 2.3149188154e+03 2.2500988443e+03 2.3618e+03 0.0000e+00
       11  1    3    3    0    0 +5.4147537887e-02 -6.2143428519e-02 +3.6285165481e-02 9.0059068277e-02 5.1100000000e-04 0.0000e+00 1.0000e+00
  1000022  1    3    3    0    0 -2.1041425400e+02 +3.6137288535e+02 +7.2464986549e+02 2.4005170168e+03 2.2500000000e+03 0.0000e+00 0.0000e+00
      -11  1    4    4    0    0 +1.1415243504e-02 -9.9458092330e-02 -7.2332346360e-02 1.2350890341e-01 5.1100000000e-04 0.0000e+00 -1.0000e+00
  1000022  1    4    4    0    0 +2.1034869122e+02 -3.6121128383e+02 -3.4793267647e+02 2.3147953065e+03 2.2500000000e+03 0.0000e+00 0.0000e+00
<mgrwt>
<rscale>  0 0.47004570E+04</rscale>
<asrwt>0</asrwt>
<pdfrwt beam="1">  1        2 0.39170823E+00 0.47004570E+04</pdfrwt>
<pdfrwt beam="2">  1       -2 0.33375729E+00 0.47004570E+04</pdfrwt>
<totfact> 0.47992939E-02</totfact>
</mgrwt>
</event>
<event>
 8      1 +1.2359593e-08 5.63168600e+03 7.81860800e-03 7.73782500e-02
       -2 -1    0    0    0  501 -0.0000000000e+00 +0.0000000000e+00 +3.0225041428e+03 3.0225041428e+03 2.5500000000e-03 0.0000e+00 -1.0000e+00
        2 -1    0    0  501    0 +0.0000000000e+00 -0.0000000000e+00 -2.6233122624e+03 2.6233122624e+03 2.5500000000e-03 0.0000e+00 1.0000e+00
  1000011  2    1    2    0    0 +4.7578931241e+02 +1.5911130475e+03 -1.2984248318e+02 2.7996127008e+03 2.2501013320e+03 3.8818e+01 0.0000e+00
 -1000011  2    1    2    0    0 -4.7578931241e+02 -1.5911130475e+03 +5.2903436354e+02 2.8462037044e+03 2.2501071018e+03 9.1828e+02 0.0000e+00
       11  1    3    3    0    0 +5.6905930336e-02 +1.8455260173e-01 +2.5571843565e-02 1.9481305802e-01 5.1100000000e-04 0.0000e+00 1.0000e+00
  1000022  1    3    3    0    0 +4.7573240648e+02 +1.5909284949e+03 -1.2986805502e+02 2.7994178877e+03 2.2500000000e+03 0.0000e+00 0.0000e+00
      -11  1    4    4    0    0 +9.1492305851e-04 +5.3932894387e-03 +9.9923001256e-02 1.0007393042e-01 5.1100000000e-04 0.0000e+00 -1.0000e+00
  1000022  1    4    4    0    0 -4.7579022733e+02 -1.5911184408e+03 +5.2893444054e+02 2.8461036305e+03 2.2500000000e+03 0.0000e+00 0.0000e+00
<mgrwt>
<rscale>  0 0.56316861E+04</rscale>
<asrwt>0</asrwt>
<pdfrwt beam="1">  1        2 0.40358650E+00 0.56316861E+04</pdfrwt>
<pdfrwt beam="2">  1       -2 0.46500064E+00 0.56316861E+04</pdfrwt>
<totfact> 0.56773532E-03</totfact>
</mgrwt>
</event>
<event>
 8      1 +1.2359593e-08 4.57879300e+03 7.81860800e-03 7.89698600e-02
        2 -1    0    0  501    0 +0.0000000000e+00 +0.0000000000e+00 +1.7774944386e+03 1.7774944386e+03 2.5500000000e-03 0.0000e+00 1.0000e+00
       -2 -1    0    0    0  501 -0.0000000000e+00 -0.0000000000e+00 -2.9487210981e+03 2.9487210981e+03 2.5500000000e-03 0.0000e+00 -1.0000e+00
  1000011  2    1    2    0    0 +3.8586759782e+02 +1.6809340603e+02 -6.2189522588e+02 2.3720989229e+03 2.2501000937e+03 1.1337e+03 0.0000e+00
 -1000011  2    1    2    0    0 -3.8586759782e+02 -1.6809340603e+02 -5.4933143358e+02 2.3541166138e+03 2.2501001780e+03 2.3142e+03 0.0000e+00
       11  1    3    3    0    0 +8.4215573656e-04 +8.8820282987e-02 +2.9576943360e-02 9.3620555389e-02 5.1100000000e-04 0.0000e+00 1.0000e+00
  1000022  1    3    3    0    0 +3.8586675566e+02 +1.6800458575e+02 -6.2192480282e+02 2.3720053023e+03 2.2500000000e+03 0.0000e+00 0.0000e+00
      -11  1    4    4    0    0 +4.9873780165e-02 -4.9252398054e-02 -8.6389892772e-02 1.1125046949e-01 5.1100000000e-04 0.0000e+00 -1.0000e+00
  1000022  1    4    4    0    0 -3.8591747160e+02 -1.6804415363e+02 -5.4924504369e+02 2.3540053633e+03 2.2500000000e+03 0.0000e+00 0.0000e+00
<mgrwt>
<rscale>  0 0.45787926E+04</rscale>
<asrwt>0</asrwt>
<pdfrwt beam="1">  1        2 0.27346068E+00 0.45787926E+04</pdfrwt>
<pdfrwt beam="2">  1       -2 0.45364940E+00 0.45787926E+04</pdfrwt>
<totfact> 0.21991338E-02</totfact>
</mgrwt>
</event>
<event>
 8      1 +1.2359593e-08 4.55271200e+03 7.81860800e-03 7.90147300e-02
       -2 -1    0    0    0  501 -0.0000000000e+00 +0.0000000000e+00 +2.4535051790e+03 2.4535051790e+03 2.5500000000e-03 0.0000e+00 1.0000e+00
        2 -1    0    0  501    0 +0.0000000000e+00 -0.0000000000e+00 -2.1119976959e+03 2.1119976959e+03 2.5500000000e-03 0.0000e+00 -1.0000e+00
  1000011  2    1    2    0    0 -1.5827003209e+02 +3.0392940497e+02 +2.0849943684e+02 2.2855757761e+03 2.2501026925e+03 4.2130e+03 0.0000e+00
 -1000011  2    1    2    0    0 +1.5827003209e+02 -3.0392940497e+02 +1.3300804627e+02 2.2799270987e+03 2.2501008753e+03 4.8474e+02 0.0000e+00
       11  1    3    3    0    0 -1.5899502358e-02 -2.4104843591e-02 +1.0462310144e-01 1.0853613191e-01 5.1100000000e-04 0.0000e+00 1.0000e+00
  1000022  1    3    3    0    0 -1.5825413259e+02 +3.0395350981e+02 +2.0839481374e+02 2.2854672400e+03 2.2500000000e+03 0.0000e+00 0.0000e+00
      -11  1    4    4    0    0 -7.0018209740e-02 +2.9944049610e-02 -4.4326248099e-02 8.8115112733e-02 5.1100000000e-04 0.0000e+00 -1.0000e+00
  1000022  1    4    4    0    0 +1.5834005030e+02 -3.0395934901e+02 +1.3305237252e+02 2.2798389836e+03 2.2500000000e+03 0.0000e+00 0.0000e+00
<mgrwt>
<rscale>  0 0.45527123E+04</rscale>
<asrwt>0</asrwt>
<pdfrwt beam="1">  1        2 0.32492272E+00 0.45527123E+04</pdfrwt>
<pdfrwt beam="2">  1       -2 0.37746233E+00 0.45527123E+04</pdfrwt>
<totfact> 0.45386526E-02</totfact>
</mgrwt>
</event>
<event>
 8      1 +1.2359593e-08 4.85107100e+03 7.81860800e-03 7.85190100e-02
       -2 -1    0    0    0  501 -0.0000000000e+00 +0.0000000000e+00 +1.3480717837e+03 1.3480717837e+03 2.5500000000e-03 0.0000e+00 1.0000e+00
        2 -1    0    0  501    0 +0.0000000000e+00 -0.0000000000e+00 -4.3641761821e+03 4.3641761821e+03 2.5500000000e-03 0.0000e+00 -1.0000e+00
  1000011  2    1    2    0    0 -3.3000808002e+02 -2.7373317197e+02 -2.4474166074e+03 3.3521136777e+03 2.2501073033e+03 3.5697e+03 0.0000e+00
 -1000011  2    1    2    0    0 +3.3000808002e+02 +2.7373317197e+02 -5.6868779102e+02 2.3601342880e+03 2.2501095243e+03 2.4655e+02 0.0000e+00
       11  1    3    3    0    0 -5.5268783485e-02 -5.3662788655e-02 +6.2452866850e-03 7.7289052484e-02 5.1100000000e-04 0.0000e+00 1.0000e+00
  1000022  1    3    3    0    0 -3.2995281124e+02 -2.7367950918e+02 -2.4474228526e+03 3.3520363887e+03 2.2500000000e+03 0.0000e+00 0.0000e+00
      -11  1    4    4    0    0 -7.1721183147e-02 +3.0800448808e-02 -9.0991798377e-02 1.1988479373e-01 5.1100000000e-04 0.0000e+00 -1.0000e+00
  1000022  1    4    4    0    0 +3.3007980120e+02 +2.7370237152e+02 -5.6859679922e+02 2.3600144032e+03 2.2500000000e+03 0.0000e+00 0.0000e+00
<mgrwt>
<rscale>  0 0.48510711E+04</rscale>
<asrwt>0</asrwt>
<pdfrwt beam="1">  1        2 0.67141171E+00 0.48510711E+04</pdfrwt>
<pdfrwt beam="2">  1       -2 0.20739566E+00 0.48510711E+04</pdfrwt>
<totfact> 0.14418809E-02</totfact>
</mgrwt>
</event>
<event>
 8      1 +1.2359593e-08 5.98611400e+03 7.81860800e-03 7.69212600e-02
        2 -1    0    0  501    0 +0.0000000000e+00 +0.0000000000e+00 +1.6674283237e+03 1.6674283237e+03 2.5500000000e-03 0.0000e+00 1.0000e+00
       -2 -1    0    0    0  501 -0.0000000000e+00 -0.0000000000e+00 -5.3725781033e+03 5.3725781033e+03 2.5500000000e-03 0.0000e+00 -1.0000e+00
  1000011  2    1    2    0    0 -9.6314624681e+02 +1.5021818266e+03 -8.6074994563e+02 2.9980061060e+03 2.2500998222e+03 1.1016e+02 0.0000e+00
 -1000011  2    1    2    0    0 +9.6314624681e+02 -1.5021818266e+03 -2.8443998339e+03 4.0420003210e+03 2.2501011637e+03 1.4173e+03 0.0000e+00
       11  1    3    3    0    0 -6.7514735624e-02 +2.7272697723e-02 +5.8579061423e-02 9.3454838394e-02 5.1100000000e-04 0.0000e+00 1.0000e+00
  1000022  1    3    3    0    0 -9.6307873207e+02 +1.5021545539e+03 -8.6080852469e+02 2.9979126512e+03 2.2500000000e+03 0.0000e+00 0.0000e+00
      -11  1    4    4    0    0 +1.3076341167e-01 -1.1860880667e-01 -2.6197184316e-01 3.1590604037e-01 5.1100000000e-04 0.0000e+00 -1.0000e+00
  1000022  1    4    4    0    0 +9.6301548340e+02 -1.5020632178e+03 -2.8441378621e+03 4.0416844149e+03 2.2500000000e+03 0.0000e+00 0.0000e+00
<mgrwt>
<rscale>  0 0.59861136E+04</rscale>
<asrwt>0</asrwt>
<pdfrwt beam="1">  1        2 0.25652744E+00 0.59861136E+04</pdfrwt>
<pdfrwt beam="2">  1       -2 0.82655047E+00 0.59861136E+04</pdfrwt>
<totfact> 0.35271277E-04</totfact>
</mgrwt>
</event>
<event>
 8      1 +1.2359593e-08 4.61000900e+03 7.81860800e-03 7.89165600e-02
       -2 -1    0    0    0  501 -0.0000000000e+00 +0.0000000000e+00 +2.1683215929e+03 2.1683215929e+03 2.5500000000e-03 0.0000e+00 -1.0000e+00
        2 -1    0    0  501    0 +0.0000000000e+00 -0.0000000000e+00 -2.4503030228e+03 2.4503030228e+03 2.5500000000e-03 0.0000e+00 1.0000e+00
  1000011  2    1    2    0    0 +3.9019305795e+02 +2.1148042493e+02 +8.9893152007e+01 2.2952176452e+03 2.2501041460e+03 3.5698e+02 0.0000e+00
 -1000011  2    1    2    0    0 -3.9019305795e+02 -2.1148042493e+02 -3.7187458198e+02 2.3234069705e+03 2.2501010318e+03 1.2941e+02 0.0000e+00
       11  1    3    3    0    0 -6.2714663207e-02 -3.7319779223e-02 -4.5871874320e-02 8.6199679696e-02 5.1100000000e-04 0.0000e+00 1.0000e+00
  1000022  1    3    3    0    0 +3.9025577261e+02 +2.1151774471e+02 +8.9939023881e+01 2.2951314456e+03 2.2500000000e+03 0.0000e+00 0.0000e+00
      -11  1    4    4    0    0 -1.0516404169e-01 -6.1057061727e-02 -3.6009218596e-02 1.2682414996e-01 5.1100000000e-04 0.0000e+00 -1.0000e+00
  1000022  1    4    4    0    0 -3.9008789391e+02 -2.1141936787e+02 -3.7183857276e+02 2.3232801463e+03 2.2500000000e+03 0.0000e+00 0.0000e+00
<mgrwt>
<rscale>  0 0.46100087E+04</rscale>
<asrwt>0</asrwt>
<pdfrwt beam="1">  1        2 0.37696970E+00 0.46100087E+04</pdfrwt>
<pdfrwt beam="2">  1       -2 0.33358794E+00 0.46100087E+04</pdfrwt>
<totfact> 0.55077814E-02</totfact>
</mgrwt>
</event>
<event>
 8      1 +1.2359593e-08 5.88471000e+03 7.81860800e-03 7.70486300e-02
        2 -1    0    0  501    0 +0.0000000000e+00 +0.0000000000e+00 +3.3620250317e+03 3.3620250317e+03 2.5500000000e-03 0.0000e+00 1.0000e+00
       -2 -1    0    0    0  501 -0.0000000000e+00 -0.0000000000e+00 -2.5750709977e+03 2.5750709977e+03 2.5500000000e-03 0.0000e+00 -1.0000e+00
  1000011  2    1    2    0    0 +1.8699615199e+03 +1.8090910386e+02 +1.3622462367e+02 2.9344492929e+03 2.2501002899e+03 2.9478e+02 0.0000e+00
 -1000011  2    1    2    0    0 -1.8699615199e+03 -1.8090910386e+02 +6.5072941034e+02 3.0026467365e+03 2.2501009908e+03 3.6707e+02 0.0000e+00
       11  1    3    3    0    0 +1.8735659547e-01 -2.4276638587e-02 +5.7434290152e-02 1.9746090090e-01 5.1100000000e-04 0.0000e+00 1.0000e+00
  1000022  1    3    3    0    0 +1.8697741633e+03 +1.8093338050e+02 +1.3616718938e+02 2.9342518320e+03 2.2500000000e+03 0.0000e+00 0.0000e+00
      -11  1    4    4    0    0 -2.0015100666e-01 -5.9766840775e-02 +4.8146047275e-02 2.1436138487e-01 5.1100000000e-04 0.0000e+00 -1.0000e+00
  1000022  1    4    4    0    0 -1.8697613689e+03 -1.8084933702e+02 +6.5068126430e+02 3.0024323751e+03 2.2500000000e+03 0.0000e+00 0.0000e+00
<mgrwt>
<rscale>  0 0.58847101E+04</rscale>
<asrwt>0</asrwt>
<pdfrwt beam="1">  1        2 0.51723462E+00 0.58847101E+04</pdfrwt>
<pdfrwt beam="2">  1       -2 0.39616477E+00 0.58847101E+04</pdfrwt>
<totfact> 0.54011169E-03</totfact>
</mgrwt>
</event>
<event>
 8      1 +1.2359593e-08 5.20011300e+03 7.81860800e-03 7.79835800e-02
       -2 -1    0    0    0  501 -0.0000000000e+00 +0.0000000000e+00 +2.4231816097e+03 2.4231816097e+03 2.5500000000e-03 0.0000e+00 -1.0000e+00
        2 -1    0    0  501    0 +0.0000000000e+00 -0.0000000000e+00 -2.7898420805e+03 2.7898420805e+03 2.5500000000e-03 0.0000e+00 1.0000e+00
  1000011  2    1    2    0    0 -3.5140462954e+02 -1.1087261621e+03 -7.7180708097e+02 2.6479028247e+03 2.2500987273e+03 6.8926e+01 0.0000e+00
 -1000011  2    1    2    0    0 +3.5140462954e+02 +1.1087261621e+03 +4.0514661010e+02 2.5651208655e+03 2.2500983007e+03 1.0188e+03 0.0000e+00
       11  1    3    3    0    0 +8.8776870109e-03 +3.3894353706e-02 -8.7141138632e-02 9.3922730291e-02 5.1100000000e-04 0.0000e+00 1.0000e+00
  1000022  1    3    3    0    0 -3.5141350722e+02 -1.1087600565e+03 -7.7171993983e+02 2.6478089020e+03 2.2500000000e+03 0.0000e+00 0.0000e+00
      -11  1    4    4    0    0 +5.8630059722e-02 +1.3239503039e-01 +7.5860101434e-02 1.6346542122e-01 5.1100000000e-04 0.0000e+00 -1.0000e+00
  1000022  1    4    4    0    0 +3.5134599948e+02 +1.1085937671e+03 +4.0507075000e+02 2.5649574001e+03 2.2500000000e+03 0.0000e+00 0.0000e+00
<mgrwt>
<rscale>  0 0.52001131E+04</rscale>
<asrwt>0</asrwt>
<pdfrwt beam="1">  1        2 0.42920647E+00 0.52001131E+04</pdfrwt>
<pdfrwt beam="2">  1       -2 0.37279717E+00 0.52001131E+04</pdfrwt>
<totfact> 0.18725868E-02</totfact>
</mgrwt>
</event>
<event>
 8      1 +1.2359593e-08 5.53821800e+03 7.81860800e-03 7.75045200e-02
        2 -1    0    0  501    0 +0.0000000000e+00 +0.0000000000e+00 +2.7263661032e+03 2.7263661032e+03 2.5500000000e-03 0.0000e+00 1.0000e+00
       -2 -1    0    0    0  501 -0.0000000000e+00 -0.0000000000e+00 -2.8125216968e+03 2.8125216968e+03 2.5500000000e-03 0.0000e+00 -1.0000e+00
  1000011  2    1    2    0    0 +1.1080009616e+03 -1.1402170340e+03 +2.3486567347e+02 2.7651169789e+03 2.2500997771e+03 1.1801e+02 0.0000e+00
 -1000011  2    1    2    0    0 -1.1080009616e+03 +1.1402170340e+03 -3.2102126702e+02 2.7737708211e+03 2.2501086415e+03 1.2125e+02 0.0000e+00
       11  1    3    3    0    0 +7.5771304508e-02 -1.3216958102e-01 +8.2010291295e-02 1.7302033888e-01 5.1100000000e-04 0.0000e+00 1.0000e+00
  1000022  1    3    3    0    0 +1.1079251903e+03 -1.1400848645e+03 +2.3478366318e+02 2.7649439586e+03 2.2500000000e+03 0.0000e+00 0.0000e+00
      -11  1    4    4    0    0 +5.8591842240e-04 +9.5799022052e-02 -1.0059860956e-01 1.3891773448e-01 5.1100000000e-04 0.0000e+00 -1.0000e+00
  1000022  1    4    4    0    0 -1.1080015476e+03 +1.1401212350e+03 -3.2092066841e+02 2.7736319034e+03 2.2500000000e+03 0.0000e+00 0.0000e+00
<mgrwt>
<rscale>  0 0.55382177E+04</rscale>
<asrwt>0</asrwt>
<pdfrwt beam="1">  1        2 0.41944094E+00 0.55382177E+04</pdfrwt>
<pdfrwt beam="2">  1       -2 0.43269564E+00 0.55382177E+04</pdfrwt>
<totfact> 0.80950363E-03</totfact>
</mgrwt>
</event>
<event>
 8      1 +1.2359593e-08 4.90802900e+03 7.81860800e-03 7.84285300e-02
       -2 -1    0    0    0  501 -0.0000000000e+00 +0.0000000000e+00 +1.6726509718e+03 1.6726509718e+03 2.5500000000e-03 0.0000e+00 -1.0000e+00
        2 -1    0    0  501    0 +0.0000000000e+00 -0.0000000000e+00 -3.6003853743e+03 3.6003853743e+03 2.5500000000e-03 0.0000e+00 1.0000e+00
  1000011  2    1    2    0    0 -2.3096336053e+02 +5.1959789101e+02 -1.8205757042e+03 2.9497076263e+03 2.2501006963e+03 3.7564e+02 0.0000e+00
 -1000011  2    1    2    0    0 +2.3096336053e+02 -5.1959789101e+02 -1.0715869830e+02 2.3233287198e+03 2.2501216215e+03 3.1537e+02 0.0000e+00
       11  1    3    3    0    0 +1.7933418152e-02 +9.1123367832e-02 -1.8003269773e-01 2.0257617957e-01 5.1100000000e-04 0.0000e+00 1.0000e+00
  1000022  1    3    3    0    0 -2.3098129395e+02 +5.1950676764e+02 -1.8203956715e+03 2.9495050501e+03 2.2500000000e+03 0.0000e+00 0.0000e+00
      -11  1    4    4    0    0 -1.7038160101e-02 -1.4564950155e-01 +1.8538927516e-02 1.4781078717e-01 5.1100000000e-04 0.0000e+00 -1.0000e+00
  1000022  1    4    4    0    0 +2.3098039869e+02 -5.1945224151e+02 -1.0717723722e+02 2.3231809090e+03 2.2500000000e+03 0.0000e+00 0.0000e+00
<mgrwt>
<rscale>  0 0.49080294E+04</rscale>
<asrwt>0</asrwt>
<pdfrwt beam="1">  1        2 0.55390544E+00 0.49080294E+04</pdfrwt>
<pdfrwt beam="2">  1       -2 0.25733092E+00 0.49080294E+04</pdfrwt>
<totfact> 0.29242908E-02</totfact>
</mgrwt>
</event>
<event>
 8      1 +1.2359593e-08 4.83469100e+03 7.81860800e-03 7.85452600e-02
        2 -1    0    0  501    0 +0.0000000000e+00 +0.0000000000e+00 +1.9604249211e+03 1.9604249211e+03 2.5500000000e-03 0.0000e+00 1.0000e+00
       -2 -1    0    0    0  501 -0.0000000000e+00 -0.0000000000e+00 -2.9807611484e+03 2.9807611484e+03 2.5500000000e-03 0.0000e+00 -1.0000e+00
  1000011  2    1    2    0    0 -7.4987784518e+02 -4.6618407433e+02 -4.7847373789e+02 2.4640479779e+03 2.2501002079e+03 7.5904e+02 0.0000e+00
 -1000011  2    1    2    0    0 +7.4987784518e+02 +4.6618407433e+02 -5.4186248934e+02 2.4771380916e+03 2.2501008407e+03 8.6200e+02 0.0000e+00
       11  1    3    3    0    0 +3.4858723403e-02 -9.2912638527e-02 -4.4386389038e-03 9.9337057260e-02 5.1100000000e-04 0.0000e+00 1.0000e+00
  1000022  1    3    3    0    0 -7.4991270390e+02 -4.6609116170e+02 -4.7846929925e+02 2.4639486409e+03 2.2500000000e+03 0.0000e+00 0.0000e+00
      -11  1    4    4    0    0 +3.5113667010e-02 -6.9149914946e-02 -7.0110375599e-02 1.0454858191e-01 5.1100000000e-04 0.0000e+00 -1.0000e+00
  1000022  1    4    4    0    0 +7.4984273151e+02 +4.6625322425e+02 -5.4179237897e+02 2.4770335430e+03 2.2500000000e+03 0.0000e+00 0.0000e+00
<mgrwt>
<rscale>  0 0.48346907E+04</rscale>
<asrwt>0</asrwt>
<pdfrwt beam="1">  1        2 0.30160383E+00 0.48346907E+04</pdfrwt>
<pdfrwt beam="2">  1       -2 0.45857864E+00 0.48346907E+04</pdfrwt>
<totfact> 0.15839032E-02</totfact>
</mgrwt>
</event>
<event>
 8      1 +1.2359593e-08 4.77971200e+03 7.81860800e-03 7.86341700e-02
        2 -1    0    0  501    0 +0.0000000000e+00 +0.0000000000e+00 +2.3140160548e+03 2.3140160548e+03 2.5500000000e-03 0.0000e+00 1.0000e+00
       -2 -1    0    0    0  501 -0.0000000000e+00 -0.0000000000e+00 -2.4681816910e+03 2.4681816910e+03 2.5500000000e-03 0.0000e+00 -1.0000e+00
  1000011  2    1    2    0    0 +2.2925850418e+02 -5.8959037381e+02 +4.2148801005e+02 2.3750358776e+03 2.2501037768e+03 7.7232e+02 0.0000e+00
 -1000011  2    1    2    0    0 -2.2925850418e+02 +5.8959037381e+02 -5.7565364631e+02 2.4071618682e+03 2.2500833026e+03 4.6094e+02 0.0000e+00
       11  1    3    3    0    0 -7.2470211998e-03 -1.2979169924e-01 +4.6669845432e-02 1.3811857096e-01 5.1100000000e-04 0.0000e+00 1.0000e+00
  1000022  1    3    3    0    0 +2.2926575120e+02 -5.8946058211e+02 +4.2144134021e+02 2.3748977590e+03 2.2500000000e+03 0.0000e+00 0.0000e+00
      -11  1    4    4    0    0 +2.1384084947e-02 +6.9314033230e-02 -8.7636355148e-02 1.1376337694e-01 5.1100000000e-04 0.0000e+00 -1.0000e+00
  1000022  1    4    4    0    0 -2.2927988827e+02 +5.8952105977e+02 -5.7556600995e+02 2.4070481048e+03 2.2500000000e+03 0.0000e+00 0.0000e+00
<mgrwt>
<rscale>  0 0.47797121E+04</rscale>
<asrwt>0</asrwt>
<pdfrwt beam="1">  1        2 0.35600247E+00 0.47797121E+04</pdfrwt>
<pdfrwt beam="2">  1       -2 0.37972026E+00 0.47797121E+04</pdfrwt>
<totfact> 0.33162662E-02</totfact>
</mgrwt>
</event>
<event>
 8      1 +1.2359593e-08 4.61524900e+03 7.81860800e-03 7.89076500e-02
        2 -1    0    0  501    0 +0.0000000000e+00 +0.0000000000e+00 +3.3422816638e+03 3.3422816638e+03 2.5500000000e-03 0.0000e+00 1.0000e+00
       -2 -1    0    0    0  501 -0.0000000000e+00 -0.0000000000e+00 -1.5932621180e+03 1.5932621180e+03 2.5500000000e-03 0.0000e+00 -1.0000e+00
  1000011  2    1    2    0    0 -3.0602232797e+02 +2.1535147628e+02 +1.2482579392e+03 2.6002173744e+03 2.2501014617e+03 6.9911e+02 0.0000e+00
 -1000011  2    1    2    0    0 +3.0602232797e+02 -2.1535147628e+02 +5.0076160660e+02 2.3353264074e+03 2.2501025130e+03 2.6447e+02 0.0000e+00
       11  1    3    3    0    0 -1.0379906148e-01 +5.9149981113e-02 +5.9229491301e-02 1.3334676177e-01 5.1100000000e-04 0.0000e+00 1.0000e+00
  1000022  1    3    3    0    0 -3.0591852891e+02 +2.1529232629e+02 +1.2481987097e+03 2.6000840277e+03 2.2500000000e+03 0.0000e+00 0.0000e+00
      -11  1    4    4    0    0 +6.8952022444e-02 -8.6112651067e-03 -6.4453074313e-02 9.4778662923e-02 5.1100000000e-04 0.0000e+00 -1.0000e+00
  1000022  1    4    4    0    0 +3.0595337595e+02 -2.1534286501e+02 +5.0082605967e+02 2.3352316287e+03 2.2500000000e+03 0.0000e+00 0.0000e+00
<mgrwt>
<rscale>  0 0.46152490E+04</rscale>
<asrwt>0</asrwt>
<pdfrwt beam="1">  1        2 0.51419717E+00 0.46152490E+04</pdfrwt>
<pdfrwt beam="2">  1       -2 0.24511725E+00 0.46152490E+04</pdfrwt>
<totfact> 0.53871817E-02</totfact>
</mgrwt>
</event>
<event>
 8      1 +1.2359593e-08 4.61676400e+03 7.81860800e-03 7.89050800e-02
       -2 -1    0    0    0  501 -0.0000000000e+00 +0.0000000000e+00 +2.3152694806e+03 2.3152694806e+03 2.5500000000e-03 0.0000e+00 -1.0000e+00
        2 -1    0    0  501    0 +0.0000000000e+00 -0.0000000000e+00 -2.3015153999e+03 2.3015153999e+03 2.5500000000e-03 0.0000e+00 1.0000e+00
  1000011  2    1    2    0    0 -4.8746349432e+02 -1.2821113311e+02 +1.1472991241e+02 2.3087122548e+03 2.2500956801e+03 1.7909e+02 0.0000e+00
 -1000011  2    1    2    0    0 +4.8746349432e+02 +1.2821113311e+02 -1.0097583180e+02 2.3080726257e+03 2.2500987476e+03 5.3470e+02 0.0000e+00
       11  1    3    3    0    0 +5.7448460154e-02 +5.2859098798e-02 +9.6600386503e-03 7.8663757896e-02 5.1100000000e-04 0.0000e+00 1.0000e+00
  1000022  1    3    3    0    0 -4.8752094278e+02 -1.2826399221e+02 +1.1472025237e+02 2.3086335910e+03 2.2500000000e+03 0.0000e+00 0.0000e+00
      -11  1    4    4    0    0 -2.2954523799e-02 -7.3592588612e-02 +3.7418073802e-02 8.5692194401e-02 5.1100000000e-04 0.0000e+00 -1.0000e+00
  1000022  1    4    4    0    0 +4.8748644884e+02 +1.2828472570e+02 -1.0101324987e+02 2.3079869335e+03 2.2500000000e+03 0.0000e+00 0.0000e+00
<mgrwt>
<rscale>  0 0.46167644E+04</rscale>
<asrwt>0</asrwt>
<pdfrwt beam="1">  1        2 0.35407929E+00 0.46167644E+04</pdfrwt>
<pdfrwt beam="2">  1       -2 0.35619531E+00 0.46167644E+04</pdfrwt>
<totfact> 0.48283723E-02</totfact>
</mgrwt>
</event>
<event>
 8      1 +1.2359593e-08 4.89494000e+03 7.81860800e-03 7.84492100e-02
       -2 -1    0    0    0  501 -0.0000000000e+00 +0.0000000000e+00 +2.7068829109e+03 2.7068829109e+03 2.5500000000e-03 0.0000e+00 -1.0000e+00
        2 -1    0    0  501    0 +0.0000000000e+00 -0.0000000000e+00 -2.2129174301e+03 2.2129174301e+03 2.5500000000e-03 0.0000e+00 1.0000e+00
  1000011  2    1    2    0    0 -1.0670644986e+02 -8.5279576285e+02 +6.8337079450e+02 2.5037168821e+03 2.2501012651e+03 2.3715e+03 0.0000e+00
 -1000011  2    1    2    0    0 +1.0670644986e+02 +8.5279576285e+02 -1.8940531375e+02 2.4160834590e+03 2.2500973375e+03 1.5456e+02 0.0000e+00
       11  1    3    3    0    0 +2.8062959341e-02 +5.8417411991e-02 -1.3553368411e-02 6.6212373440e-02 5.1100000000e-04 0.0000e+00 1.0000e+00
  1000022  1    3    3    0    0 -1.0673451282e+02 -8.5285418026e+02 +6.8338434787e+02 2.5036506697e+03 2.2500000000e+03 0.0000e+00 0.0000e+00
      -11  1    4    4    0    0 -2.5060283389e-02 +1.0021875739e-01 +6.1276124746e-02 1.2011178683e-01 5.1100000000e-04 0.0000e+00 -1.0000e+00
  1000022  1    4    4    0    0 +1.0673151014e+02 +8.5269554409e+02 -1.8946658987e+02 2.4159633472e+03 2.2500000000e+03 0.0000e+00 0.0000e+00
<mgrwt>
<rscale>  0 0.48949396E+04</rscale>
<asrwt>0</asrwt>
<pdfrwt beam="1">  1        2 0.34044884E+00 0.48949396E+04</pdfrwt>
<pdfrwt beam="2">  1       -2 0.41644352E+00 0.48949396E+04</pdfrwt>
<totfact> 0.21597043E-02</totfact>
</mgrwt>
</event>
<event>
 8      1 +1.2359593e-08 4.55728800e+03 7.81860800e-03 7.90068300e-02
       -2 -1    0    0    0  501 -0.0000000000e+00 +0.0000000000e+00 +1.8312003207e+03 1.8312003207e+03 2.5500000000e-03 0.0000e+00 -1.0000e+00
        2 -1    0    0  501    0 +0.0000000000e+00 -0.0000000000e+00 -2.8354182630e+03 2.8354182630e+03 2.5500000000e-03 0.0000e+00 1.0000e+00
  1000011  2    1    2    0    0 -4.9220662452e+01 +3.4852834526e+02 -4.2707009929e+02 2.3171634270e+03 2.2501028414e+03 1.1954e+02 0.0000e+00
 -1000011  2    1    2    0    0 +4.9220662452e+01 -3.4852834526e+02 -5.7714784297e+02 2.3494551567e+03 2.2500989355e+03 2.5540e+02 0.0000e+00
       11  1    3    3    0    0 -6.8097666583e-02 +4.7605344176e-02 -9.4593862276e-02 1.2590401388e-01 5.1100000000e-04 0.0000e+00 1.0000e+00
  1000022  1    3    3    0    0 -4.9152564786e+01 +3.4848073991e+02 -4.2697550542e+02 2.3170375230e+03 2.2500000000e+03 0.0000e+00 0.0000e+00
      -11  1    4    4    0    0 +7.5847027515e-02 +2.1601872072e-02 +3.2262257894e-02 8.5208723636e-02 5.1100000000e-04 0.0000e+00 -1.0000e+00
  1000022  1    4    4    0    0 +4.9144815425e+01 -3.4854994713e+02 -5.7718010522e+02 2.3493699480e+03 2.2500000000e+03 0.0000e+00 0.0000e+00
<mgrwt>
<rscale>  0 0.45572882E+04</rscale>
<asrwt>0</asrwt>
<pdfrwt beam="1">  1        2 0.43621819E+00 0.45572882E+04</pdfrwt>
<pdfrwt beam="2">  1       -2 0.28172313E+00 0.45572882E+04</pdfrwt>
<totfact> 0.68207807E-02</totfact>
</mgrwt>
</event>
<event>
 8      1 +1.2359593e-08 4.60197400e+03 7.81860800e-03 7.89302300e-02
        2 -1    0    0  501    0 +0.0000000000e+00 +0.0000000000e+00 +2.3642961524e+03 2.3642961524e+03 2.5500000000e-03 0.0000e+00 1.0000e+00
       -2 -1    0    0    0  501 -0.0000000000e+00 -0.0000000000e+00 -2.2393734184e+03 2.2393734184e+03 2.5500000000e-03 0.0000e+00 -1.0000e+00
  1000011  2    1    2    0    0 +1.3431162029e+02 -3.6788300130e+02 +3.4222441382e+02 2.3094272348e+03 2.2501020175e+03 2.6225e+01 0.0000e+00
 -1000011  2    1    2    0    0 -1.3431162029e+02 +3.6788300130e+02 -2.1730167981e+02 2.2942423359e+03 2.2501000782e+03 1.8221e+03 0.0000e+00
       11  1    3    3    0    0 -2.3036133322e-02 -1.0531260046e-01 +6.1013364361e-02 1.2387210631e-01 5.1100000000e-04 0.0000e+00 1.0000e+00
  1000022  1    3    3    0    0 +1.3433465643e+02 -3.6777768870e+02 +3.4216340045e+02 2.3093033627e+03 2.2500000000e+03 0.0000e+00 0.0000e+00
      -11  1    4    4    0    0 -3.1729420302e-02 -8.0235549646e-02 +6.4943444278e-03 8.6527089118e-02 5.1100000000e-04 0.0000e+00 -1.0000e+00
  1000022  1    4    4    0    0 -1.3427989087e+02 +3.6796323685e+02 -2.1730817416e+02 2.2941558089e+03 2.2500000000e+03 0.0000e+00 0.0000e+00
<mgrwt>
<rscale>  0 0.46019743E+04</rscale>
<asrwt>0</asrwt>
<pdfrwt beam="1">  1        2 0.36373787E+00 0.46019743E+04</pdfrwt>
<pdfrwt beam="2">  1       -2 0.34451899E+00 0.46019743E+04</pdfrwt>
<totfact> 0.52750478E-02</totfact>
</mgrwt>
</event>
<event>
 8      1 +1.2359593e-08 5.39685700e+03 7.81860800e-03 7.77004300e-02
       -2 -1    0    0    0  501 -0.0000000000e+00 +0.0000000000e+00 +1.6242710903e+03 1.6242710903e+03 2.5500000000e-03 0.0000e+00 -1.0000e+00
        2 -1    0    0  501    0 +0.0000000000e+00 -0.0000000000e+00 -4.4829443939e+03 4.4829443939e+03 2.5500000000e-03 0.0000e+00 1.0000e+00
  1000011  2    1    2    0    0 -9.6268061259e+02 +3.4162658459e+02 -2.0262736288e+02 2.4794089630e+03 2.2500996139e+03 3.9706e+02 0.0000e+00
 -1000011  2    1    2    0    0 +9.6268061259e+02 -3.4162658459e+02 -2.6560459407e+03 3.6278065211e+03 2.2500972047e+03 5.7718e+01 0.0000e+00
       11  1    3    3    0    0 +4.6389022993e-03 +4.5512889621e-02 -9.1556503717e-02 1.0235134135e-01 5.1100000000e-04 0.0000e+00 1.0000e+00
  1000022  1    3    3    0    0 -9.6268525149e+02 +3.4158107170e+02 -2.0253580638e+02 2.4793066117e+03 2.2500000000e+03 0.0000e+00 0.0000e+00
      -11  1    4    4    0    0 -5.2620761155e-02 +2.9056357520e-02 -3.6566283431e-02 7.0360288787e-02 5.1100000000e-04 0.0000e+00 -1.0000e+00
  1000022  1    4    4    0    0 +9.6273323335e+02 -3.4165564094e+02 -2.6560093744e+03 3.6277361608e+03 2.2500000000e+03 0.0000e+00 0.0000e+00
<mgrwt>
<rscale>  0 0.53968572E+04</rscale>
<asrwt>0</asrwt>
<pdfrwt beam="1">  1        2 0.68968375E+00 0.53968572E+04</pdfrwt>
<pdfrwt beam="2">  1       -2 0.24988786E+00 0.53968572E+04</pdfrwt>
<totfact> 0.57473973E-03</totfact>
</mgrwt>
</event>
<event>
 8      1 +1.2359593e-08 4.70192500e+03 7.81860800e-03 7.87620900e-02
        2 -1    0    0  501    0 +0.0000000000e+00 +0.0000000000e+00 +2.7454867632e+03 2.7454867632e+03 2.5500000000e-03 0.0000e+00 1.0000e+00
       -2 -1    0    0    0  501 -0.0000000000e+00 -0.0000000000e+00 -2.0131307053e+03 2.0131307053e+03 2.5500000000e-03 0.0000e+00 -1.0000e+00
  1000011  2    1    2    0    0 -3.0364380393e+02 -2.8042977147e+02 +9.1421679137e+02 2.4636521850e+03 2.2500998490e+03 1.5556e+03 0.0000e+00
 -1000011  2    1    2    0    0 +3.0364380393e+02 +2.8042977147e+02 -1.8186073348e+02 2.2949652835e+03 2.2501004221e+03 1.5361e+02 0.0000e+00
       11  1    3    3    0    0 +3.0334134964e-02 -1.8638790461e-02 +1.3509098705e-01 1.3970468661e-01 5.1100000000e-04 0.0000e+00 1.0000e+00
  1000022  1    3    3    0    0 -3.0367413806e+02 -2.8041113268e+02 +9.1408170038e+02 2.4635124803e+03 2.2500000000e+03 0.0000e+00 0.0000e+00
      -11  1    4    4    0    0 +5.5921761111e-02 -6.6071070013e-02 -5.4083073090e-02 1.0206796323e-01 5.1100000000e-04 0.0000e+00 -1.0000e+00
  1000022  1    4    4    0    0 +3.0358788217e+02 +2.8049584254e+02 -1.8180665040e+02 2.2948632155e+03 2.2500000000e+03 0.0000e+00 0.0000e+00
<mgrwt>
<rscale>  0 0.47019246E+04</rscale>
<asrwt>0</asrwt>
<pdfrwt beam="1">  1        2 0.42238258E+00 0.47019246E+04</pdfrwt>
<pdfrwt beam="2">  1       -2 0.30971242E+00 0.47019246E+04</pdfrwt>
<totfact> 0.51510872E-02</totfact>
</mgrwt>
</event>
<event>
 8      1 +1.2359593e-08 5.17252600e+03 7.81860800e-03 7.80243100e-02
       -2 -1    0    0    0  501 -0.0000000000e+00 +0.0000000000e+00 +1.7787698949e+03 1.7787698949e+03 2.5500000000e-03 0.0000e+00 -1.0000e+00
        2 -1    0    0  501    0 +0.0000000000e+00 -0.0000000000e+00 -3.7603267986e+03 3.7603267986e+03 2.5500000000e-03 0.0000e+00 1.0000e+00
  1000011  2    1    2    0    0 +5.8192667952e+02 +1.1275203273e+03 -1.1256792054e+03 2.8178076450e+03 2.2500989983e+03 6.4962e+01 0.0000e+00
 -1000011  2    1    2    0    0 -5.8192667952e+02 -1.1275203273e+03 -8.5587769836e+02 2.7212890485e+03 2.2500992649e+03 3.6400e+02 0.0000e+00
       11  1    3    3    0    0 -4.8057851101e-02 +6.9970937109e-02 -1.1531949387e-01 1.4319335099e-01 5.1100000000e-04 0.0000e+00 1.0000e+00
  1000022  1    3    3    0    0 +5.8197473737e+02 +1.1274503563e+03 -1.1255638859e+03 2.8176644517e+03 2.2500000000e+03 0.0000e+00 0.0000e+00
      -11  1    4    4    0    0 +5.0991481553e-02 -1.0625614352e-01 -9.7432873455e-03 1.1826111583e-01 5.1100000000e-04 0.0000e+00 -1.0000e+00
  1000022  1    4    4    0    0 -5.8197767100e+02 -1.1274140711e+03 -8.5586795508e+02 2.7211707873e+03 2.2500000000e+03 0.0000e+00 0.0000e+00
<mgrwt>
<rscale>  0 0.51725259E+04</rscale>
<asrwt>0</asrwt>
<pdfrwt beam="1">  1        2 0.57851181E+00 0.51725259E+04</pdfrwt>
<pdfrwt beam="2">  1       -2 0.27365691E+00 0.51725259E+04</pdfrwt>
<totfact> 0.17342420E-02</totfact>
</mgrwt>
</event>
<event>
 8      1 +1.2359593e-08 5.05514400e+03 7.81860800e-03 7.82005700e-02
       -1 -1    0    0    0  501 -0.0000000000e+00 +0.0000000000e+00 +2.3931379324e+03 2.3931379324e+03 5.0400000000e-03 0.0000e+00 -1.0000e+00
        1 -1    0    0  501    0 +0.0000000000e+00 -0.0000000000e+00 -2.6695583472e+03 2.6695583472e+03 5.0400000000e-03 0.0000e+00 1.0000e+00
  1000011  2    1    2    0    0 +1.8955810994e+02 -7.0146272250e+02 +7.5625533994e+02 2.4825118908e+03 2.2501024245e+03 1.3973e+03 0.0000e+00
 -1000011  2    1    2    0    0 -1.8955810994e+02 +7.0146272250e+02 -1.0326757547e+03 2.5801843888e+03 2.2501000062e+03 3.7787e+03 0.0000e+00
       11  1    3    3    0    0 +6.8333105417e-02 -1.1990732893e-01 +3.1910635335e-02 1.4165355665e-01 5.1100000000e-04 0.0000e+00 1.0000e+00
  1000022  1    3    3    0    0 +1.8948977683e+02 -7.0134281517e+02 +7.5622342930e+02 2.4823702373e+03 2.2500000000e+03 0.0000e+00 0.0000e+00
      -11  1    4    4    0    0 -3.2816623968e-02 -4.2722263309e-02 +3.4739032363e-02 6.4102914485e-02 5.1100000000e-04 0.0000e+00 -1.0000e+00
  1000022  1    4    4    0    0 -1.8952529331e+02 +7.0150544476e+02 -1.0327104937e+03 2.5801202859e+03 2.2500000000e+03 0.0000e+00 0.0000e+00
<mgrwt>
<rscale>  0 0.50551444E+04</rscale>
<asrwt>0</asrwt>
<pdfrwt beam="1">  1        1 0.41070128E+00 0.50551444E+04</pdfrwt>
<pdfrwt beam="2">  1       -1 0.36817507E+00 0.50551444E+04</pdfrwt>
<totfact> 0.87129655E-03</totfact>
</mgrwt>
</event>
<event>
 8      1 +1.2359593e-08 6.22262200e+03 7.81860800e-03 7.66339600e-02
       -2 -1    0    0    0  501 -0.0000000000e+00 +0.0000000000e+00 +2.2108948872e+03 2.2108948872e+03 2.5500000000e-03 0.0000e+00 -1.0000e+00
        2 -1    0    0  501    0 +0.0000000000e+00 -0.0000000000e+00 -4.3784333109e+03 4.3784333109e+03 2.5500000000e-03 0.0000e+00 1.0000e+00
  1000011  2    1    2    0    0 -9.1813014488e+02 -1.4890540045e+03 -2.4051254969e+03 3.7293182499e+03 2.2500980337e+03 1.7351e+03 0.0000e+00
 -1000011  2    1    2    0    0 +9.1813014488e+02 +1.4890540045e+03 +2.3758707330e+02 2.8600099483e+03 2.2501032188e+03 8.3752e+02 0.0000e+00
       11  1    3    3    0    0 -8.0823778969e-02 -5.5060211583e-02 -2.2794054715e-01 2.4803480403e-01 5.1100000000e-04 0.0000e+00 1.0000e+00
  1000022  1    3    3    0    0 -9.1804932110e+02 -1.4889989443e+03 -2.4048975564e+03 3.7290702151e+03 2.2500000000e+03 0.0000e+00 0.0000e+00
      -11  1    4    4    0    0 +1.2296545496e-01 +1.7032426886e-01 +1.5375647627e-02 2.1063601531e-01 5.1100000000e-04 0.0000e+00 -1.0000e+00
  1000022  1    4    4    0    0 +9.1800717942e+02 +1.4888836803e+03 +2.3757169765e+02 2.8597993122e+03 2.2500000000e+03 0.0000e+00 0.0000e+00
<mgrwt>
<rscale>  0 0.62226219E+04</rscale>
<asrwt>0</asrwt>
<pdfrwt beam="1">  1        2 0.67360512E+00 0.62226219E+04</pdfrwt>
<pdfrwt beam="2">  1       -2 0.34013767E+00 0.62226219E+04</pdfrwt>
<totfact> 0.18896905E-03</totfact>
</mgrwt>
</event>
<event>
 8      1 +1.2359593e-08 7.52278000e+03 7.81860800e-03 7.52579900e-02
       -2 -1    0    0    0  501 -0.0000000000e+00 +0.0000000000e+00 +4.5135961860e+03 4.5135961860e+03 2.5500000000e-03 0.0000e+00 -1.0000e+00
        2 -1    0    0  501    0 +0.0000000000e+00 -0.0000000000e+00 -3.1345413130e+03 3.1345413130e+03 2.5500000000e-03 0.0000e+00 1.0000e+00
  1000011  2    1    2    0    0 +1.8821168121e+03 -1.3096565860e+03 -1.2994825390e+03 3.4654260579e+03 2.2501019590e+03 1.8103e+03 0.0000e+00
 -1000011  2    1    2    0    0 -1.8821168121e+03 +1.3096565860e+03 +2.6785374120e+03 4.1827114411e+03 2.2500996121e+03 5.7332e+02 0.0000e+00
       11  1    3    3    0    0 +2.2817572978e-02 -1.1917201104e-01 -1.1364096475e-01 1.6624421669e-01 5.1100000000e-04 0.0000e+00 1.0000e+00
  1000022  1    3    3    0    0 +1.8820939945e+03 -1.3095374140e+03 -1.2993688980e+03 3.4652598137e+03 2.2500000000e+03 0.0000e+00 0.0000e+00
      -11  1    4    4    0    0 +6.7060629585e-03 +4.1609344271e-02 +1.6183139273e-01 1.6723028810e-01 5.1100000000e-04 0.0000e+00 -1.0000e+00
  1000022  1    4    4    0    0 -1.8821235182e+03 +1.3096149767e+03 +2.6783755806e+03 4.1825442108e+03 2.2500000000e+03 0.0000e+00 0.0000e+00
<mgrwt>
<rscale>  0 0.75227797E+04</rscale>
<asrwt>0</asrwt>
<pdfrwt beam="1">  1        2 0.48223713E+00 0.75227797E+04</pdfrwt>
<pdfrwt beam="2">  1       -2 0.69439941E+00 0.75227797E+04</pdfrwt>
<totfact> 0.21022592E-04</totfact>
</mgrwt>
</event>
<event>
 8      1 +1.2359593e-08 5.01780500e+03 7.81860800e-03 7.82576600e-02
       -2 -1    0    0    0  501 -0.0000000000e+00 +0.0000000000e+00 +3.1303696276e+03 3.1303696276e+03 2.5500000000e-03 0.0000e+00 -1.0000e+00
        2 -1    0    0  501    0 +0.0000000000e+00 -0.0000000000e+00 -2.0108145417e+03 2.0108145417e+03 2.5500000000e-03 0.0000e+00 1.0000e+00
  1000011  2    1    2    0    0 +6.4002639717e+02 -8.0743393223e+02 +9.8229896196e+02 2.6626019153e+03 2.2501009677e+03 1.3790e+03 0.0000e+00
 -1000011  2    1    2    0    0 -6.4002639717e+02 +8.0743393223e+02 +1.3725612386e+02 2.4785822540e+03 2.2500994206e+03 4.8686e+02 0.0000e+00
       11  1    3    3    0    0 +5.4217017321e-02 +5.0061028289e-02 -1.8939553292e-02 7.6187654120e-02 5.1100000000e-04 0.0000e+00 1.0000e+00
  1000022  1    3    3    0    0 +6.3997218015e+02 -8.0748399326e+02 +9.8231790152e+02 2.6625257276e+03 2.2500000000e+03 0.0000e+00 0.0000e+00
      -11  1    4    4    0    0 +2.1610694919e-02 +3.9644378568e-03 -7.8597510568e-02 8.1612304934e-02 5.1100000000e-04 0.0000e+00 -1.0000e+00
  1000022  1    4    4    0    0 -6.4004800786e+02 +8.0742996779e+02 +1.3733472137e+02 2.4785006417e+03 2.2500000000e+03 0.0000e+00 0.0000e+00
<mgrwt>
<rscale>  0 0.50178054E+04</rscale>
<asrwt>0</asrwt>
<pdfrwt beam="1">  1        2 0.30935608E+00 0.50178054E+04</pdfrwt>
<pdfrwt beam="2">  1       -2 0.48159532E+00 0.50178054E+04</pdfrwt>
<totfact> 0.10384930E-02</totfact>
</mgrwt>
</event>
<event>
 8      1 +1.2359593e-08 4.71218200e+03 7.81860800e-03 7.87450800e-02
       -2 -1    0    0    0  501 -0.0000000000e+00 +0.0000000000e+00 +1.6623142186e+03 1.6623142187e+03 2.5500000000e-03 0.0000e+00 -1.0000e+00
        2 -1    0    0  501    0 +0.0000000000e+00 -0.0000000000e+00 -3.3394198937e+03 3.3394198937e+03 2.5500000000e-03 0.0000e+00 1.0000e+00
  1000011  2    1    2    0    0 +1.8895384827e+02 +5.9779594272e+02 -1.1659920372e+03 2.6106586503e+03 2.2500972450e+03 2.3131e+03 0.0000e+00
 -1000011  2    1    2    0    0 -1.8895384827e+02 -5.9779594272e+02 -5.1111363784e+02 2.3910754620e+03 2.2500980353e+03 4.8019e+02 0.0000e+00
       11  1    3    3    0    0 +7.8192879011e-02 +6.3174407460e-02 -1.2305987535e-01 1.5889973553e-01 5.1100000000e-04 0.0000e+00 1.0000e+00
  1000022  1    3    3    0    0 +1.8887565539e+02 +5.9773276831e+02 -1.1658689773e+03 2.6104997506e+03 2.2500000000e+03 0.0000e+00 0.0000e+00
      -11  1    4    4    0    0 -1.0446729115e-02 -2.6800771267e-02 +7.7973497619e-02 8.3111626150e-02 5.1100000000e-04 0.0000e+00 -1.0000e+00
  1000022  1    4    4    0    0 -1.8894340154e+02 -5.9776914195e+02 -5.1119161134e+02 2.3909923504e+03 2.2500000000e+03 0.0000e+00 0.0000e+00
<mgrwt>
<rscale>  0 0.47121822E+04</rscale>
<asrwt>0</asrwt>
<pdfrwt beam="1">  1        2 0.51375691E+00 0.47121822E+04</pdfrwt>
<pdfrwt beam="2">  1       -2 0.25574065E+00 0.47121822E+04</pdfrwt>
<totfact> 0.46187907E-02</totfact>
</mgrwt>
</event>
<event>
 8      1 +1.2359593e-08 4.92931100e+03 7.81860800e-03 7.83950500e-02
       -2 -1    0    0    0  501 -0.0000000000e+00 +0.0000000000e+00 +2.2498955228e+03 2.2498955228e+03 2.5500000000e-03 0.0000e+00 1.0000e+00
        2 -1    0    0  501    0 +0.0000000000e+00 -0.0000000000e+00 -2.6999152796e+03 2.6999152796e+03 2.5500000000e-03 0.0000e+00 -1.0000e+00
  1000011  2    1    2    0    0 +4.2150059951e+02 -3.2403484278e+02 -1.0823247733e+03 2.5528499049e+03 2.2501009727e+03 1.4403e+02 0.0000e+00
 -1000011  2    1    2    0    0 -4.2150059951e+02 +3.2403484278e+02 +6.3230501647e+02 2.3969608975e+03 2.2501001257e+03 1.3469e+03 0.0000e+00
       11  1    3    3    0    0 +4.4355263429e-03 -9.8287739418e-02 +8.1948917133e-03 9.8729785982e-02 5.1100000000e-04 0.0000e+00 1.0000e+00
  1000022  1    3    3    0    0 +4.2149616398e+02 -3.2393655504e+02 -1.0823329682e+03 2.5527511751e+03 2.2500000000e+03 0.0000e+00 0.0000e+00
      -11  1    4    4    0    0 -6.7565801362e-02 -1.6069993600e-02 -5.5672623956e-02 8.9011707450e-02 5.1100000000e-04 0.0000e+00 -1.0000e+00
  1000022  1    4    4    0    0 -4.2143303371e+02 +3.2405091277e+02 +6.3236068909e+02 2.3968718858e+03 2.2500000000e+03 0.0000e+00 0.0000e+00
<mgrwt>
<rscale>  0 0.49293112E+04</rscale>
<asrwt>0</asrwt>
<pdfrwt beam="1">  1        2 0.41537158E+00 0.49293112E+04</pdfrwt>
<pdfrwt beam="2">  1       -2 0.34613777E+00 0.49293112E+04</pdfrwt>
<totfact> 0.31992732E-02</totfact>
</mgrwt>
</event>
<event>
 8      1 +1.2359593e-08 4.65437700e+03 7.81860800e-03 7.88415400e-02
        1 -1    0    0  501    0 +0.0000000000e+00 +0.0000000000e+00 +2.6204150155e+03 2.6204150155e+03 5.0400000000e-03 0.0000e+00 1.0000e+00
       -1 -1    0    0    0  501 -0.0000000000e+00 -0.0000000000e+00 -2.0667740363e+03 2.0667740363e+03 5.0400000000e-03 0.0000e+00 -1.0000e+00
  1000011  2    1    2    0    0 +1.7005453334e+02 +5.6809908006e+02 +2.4193735266e+02 2.3394740187e+03 2.2500999739e+03 6.4910e+01 0.0000e+00
 -1000011  2    1    2    0    0 -1.7005453334e+02 -5.6809908006e+02 +3.1170362658e+02 2.3477150331e+03 2.2501003570e+03 4.3660e+03 0.0000e+00
       11  1    3    3    0    0 +6.7188425181e-02 -4.9255443640e-02 +4.2345646760e-02 9.3454790724e-02 5.1100000000e-04 0.0000e+00 1.0000e+00
  1000022  1    3    3    0    0 +1.6998734491e+02 +5.6814833551e+02 +2.4189500702e+02 2.3393805640e+03 2.2500000000e+03 0.0000e+00 0.0000e+00
      -11  1    4    4    0    0 -1.0192684828e-01 -6.1691079643e-02 +6.0552906639e-03 1.1929710325e-01 5.1100000000e-04 0.0000e+00 -1.0000e+00
  1000022  1    4    4    0    0 -1.6995260649e+02 -5.6803738898e+02 +3.1169757129e+02 2.3475957360e+03 2.2500000000e+03 0.0000e+00 0.0000e+00
<mgrwt>
<rscale>  0 0.46543767E+04</rscale>
<asrwt>0</asrwt>
<pdfrwt beam="1">  1        1 0.40314077E+00 0.46543767E+04</pdfrwt>
<pdfrwt beam="2">  1       -1 0.31796524E+00 0.46543767E+04</pdfrwt>
<totfact> 0.20908834E-02</totfact>
</mgrwt>
</event>
<event>
 8      1 +1.2359593e-08 5.29531600e+03 7.81860800e-03 7.78449900e-02
       -2 -1    0    0    0  501 -0.0000000000e+00 +0.0000000000e+00 +1.8428678462e+03 1.8428678462e+03 2.5500000000e-03 0.0000e+00 -1.0000e+00
        2 -1    0    0  501    0 +0.0000000000e+00 -0.0000000000e+00 -3.8039035999e+03 3.8039035999e+03 2.5500000000e-03 0.0000e+00 1.0000e+00
  1000011  2    1    2    0    0 -9.2109589401e+02 +1.0118719123e+03 -1.2722514134e+03 2.9246986071e+03 2.2500968580e+03 1.1692e+03 0.0000e+00
 -1000011  2    1    2    0    0 +9.2109589401e+02 -1.0118719123e+03 -6.8878434038e+02 2.7220728390e+03 2.2501009446e+03 1.6755e+03 0.0000e+00
       11  1    3    3    0    0 +5.3170710444e-02 +7.4920147742e-02 -2.9259962458e-02 9.6418667054e-02 5.1100000000e-04 0.0000e+00 1.0000e+00
  1000022  1    3    3    0    0 -9.2114906472e+02 +1.0117969921e+03 -1.2722221534e+03 2.9246021884e+03 2.2500000000e+03 0.0000e+00 0.0000e+00
      -11  1    4    4    0    0 +7.0551167166e-02 +4.8182826491e-02 +1.2232160905e-02 8.6307232530e-02 5.1100000000e-04 0.0000e+00 -1.0000e+00
  1000022  1    4    4    0    0 +9.2102534285e+02 -1.0119200951e+03 -6.8879657254e+02 2.7219865318e+03 2.2500000000e+03 0.0000e+00 0.0000e+00
<mgrwt>
<rscale>  0 0.52953155E+04</rscale>
<asrwt>0</asrwt>
<pdfrwt beam="1">  1        2 0.58521594E+00 0.52953155E+04</pdfrwt>
<pdfrwt beam="2">  1       -2 0.28351813E+00 0.52953155E+04</pdfrwt>
<totfact> 0.13854861E-02</totfact>
</mgrwt>
</event>
<event>
 8      1 +1.2359593e-08 4.69413400e+03 7.81860800e-03 7.87750400e-02
        2 -1    0    0  501    0 +0.0000000000e+00 +0.0000000000e+00 +2.1004040346e+03 2.1004040346e+03 2.5500000000e-03 0.0000e+00 1.0000e+00
       -2 -1    0    0    0  501 -0.0000000000e+00 -0.0000000000e+00 -2.6226965836e+03 2.6226965836e+03 2.5500000000e-03 0.0000e+00 -1.0000e+00
  1000011  2    1    2    0    0 +2.2027172200e+02 -7.8308990908e+01 -8.9039886385e+02 2.4311340643e+03 2.2501001693e+03 1.7543e+03 0.0000e+00
 -1000011  2    1    2    0    0 -2.2027172200e+02 +7.8308990908e+01 +3.6810631483e+02 2.2919665540e+03 2.2501014413e+03 8.3356e+01 0.0000e+00
       11  1    3    3    0    0 +9.7133178019e-02 +4.4675794481e-02 -2.9875084773e-02 1.1101154089e-01 5.1100000000e-04 0.0000e+00 1.0000e+00
  1000022  1    3    3    0    0 +2.2017458882e+02 -7.8353666702e+01 -8.9036898877e+02 2.4310230527e+03 2.2500000000e+03 0.0000e+00 0.0000e+00
      -11  1    4    4    0    0 -9.5796418653e-02 -5.0550057355e-02 +2.3561366795e-02 1.1084972110e-01 5.1100000000e-04 0.0000e+00 -1.0000e+00
  1000022  1    4    4    0    0 -2.2017592558e+02 +7.8359540965e+01 +3.6808275346e+02 2.2918557043e+03 2.2500000000e+03 0.0000e+00 0.0000e+00
<mgrwt>
<rscale>  0 0.46941336E+04</rscale>
<asrwt>0</asrwt>
<pdfrwt beam="1">  1        2 0.32313908E+00 0.46941336E+04</pdfrwt>
<pdfrwt beam="2">  1       -2 0.40349178E+00 0.46941336E+04</pdfrwt>
<totfact> 0.30860437E-02</totfact>
</mgrwt>
</event>
<event>
 8      1 +1.2359593e-08 4.99751300e+03 7.81860800e-03 7.82889100e-02
       -2 -1    0    0    0  501 -0.0000000000e+00 +0.0000000000e+00 +2.6371059141e+03 2.6371059141e+03 2.5500000000e-03 0.0000e+00 -1.0000e+00
        2 -1    0    0  501    0 +0.0000000000e+00 -0.0000000000e+00 -2.3676652189e+03 2.3676652189e+03 2.5500000000e-03 0.0000e+00 1.0000e+00
  1000011  2    1    2    0    0 +7.0587844768e+01 -9.8862891173e+02 +5.8085005079e+02 2.5264048786e+03 2.2501033443e+03 1.4676e+03 0.0000e+00
 -1000011  2    1    2    0    0 -7.0587844768e+01 +9.8862891173e+02 -3.1140935565e+02 2.4783662544e+03 2.2501008278e+03 1.9425e+02 0.0000e+00
       11  1    3    3    0    0 +5.7537138750e-02 -1.1257338582e-01 +9.8702442546e-02 1.6039240179e-01 5.1100000000e-04 0.0000e+00 1.0000e+00
  1000022  1    3    3    0    0 +7.0530307630e+01 -9.8851633835e+02 +5.8075134835e+02 2.5262444862e+03 2.2500000000e+03 0.0000e+00 0.0000e+00
      -11  1    4    4    0    0 -5.8965093873e-02 -4.4973879316e-02 +6.5784954387e-03 7.4451791682e-02 5.1100000000e-04 0.0000e+00 -1.0000e+00
  1000022  1    4    4    0    0 -7.0528879674e+01 +9.8867388561e+02 -3.1141593414e+02 2.4782918026e+03 2.2500000000e+03 0.0000e+00 0.0000e+00
<mgrwt>
<rscale>  0 0.49975130E+04</rscale>
<asrwt>0</asrwt>
<pdfrwt beam="1">  1        2 0.36425619E+00 0.49975130E+04</pdfrwt>
<pdfrwt beam="2">  1       -2 0.40570860E+00 0.49975130E+04</pdfrwt>
<totfact> 0.20589178E-02</totfact>
</mgrwt>
</event>
<event>
 8      1 +1.2359593e-08 5.31134800e+03 7.81860800e-03 7.78219500e-02
       -2 -1    0    0    0  501 -0.0000000000e+00 +0.0000000000e+00 +1.9717349773e+03 1.9717349773e+03 2.5500000000e-03 0.0000e+00 -1.0000e+00
        2 -1    0    0  501    0 +0.0000000000e+00 -0.0000000000e+00 -3.5768523996e+03 3.5768523996e+03 2.5500000000e-03 0.0000e+00 1.0000e+00
  1000011  2    1    2    0    0 +7.8465470370e+01 -5.9593473652e+02 +5.3051586188e+02 2.3886551018e+03 2.2500957925e+03 2.5789e+02 0.0000e+00
 -1000011  2    1    2    0    0 -7.8465470370e+01 +5.9593473652e+02 -2.1356332842e+03 3.1599322750e+03 2.2500994241e+03 6.1382e+02 0.0000e+00
       11  1    3    3    0    0 -5.8322820169e-02 -1.2869742418e-02 -5.2892807475e-02 7.9781522015e-02 5.1100000000e-04 0.0000e+00 1.0000e+00
  1000022  1    3    3    0    0 +7.8523793190e+01 -5.9592186678e+02 +5.3056875469e+02 2.3885753203e+03 2.2500000000e+03 0.0000e+00 0.0000e+00
      -11  1    4    4    0    0 -3.8162141834e-02 -2.1414077130e-02 +2.5347671716e-02 5.0573483478e-02 5.1100000000e-04 0.0000e+00 -1.0000e+00
  1000022  1    4    4    0    0 -7.8427308228e+01 +5.9595615060e+02 -2.1356586318e+03 3.1598817016e+03 2.2500000000e+03 0.0000e+00 0.0000e+00
<mgrwt>
<rscale>  0 0.53113482E+04</rscale>
<asrwt>0</asrwt>
<pdfrwt beam="1">  1        2 0.55028499E+00 0.53113482E+04</pdfrwt>
<pdfrwt beam="2">  1       -2 0.30334384E+00 0.53113482E+04</pdfrwt>
<totfact> 0.15410504E-02</totfact>
</mgrwt>
</event>
<event>
 8      1 +1.2359593e-08 4.61198100e+03 7.81860800e-03 7.89132000e-02
       -2 -1    0    0    0  501 -0.0000000000e+00 +0.0000000000e+00 +1.8977207274e+03 1.8977207274e+03 2.5500000000e-03 0.0000e+00 -1.0000e+00
        2 -1    0    0  501    0 +0.0000000000e+00 -0.0000000000e+00 -2.8020947587e+03 2.8020947587e+03 2.5500000000e-03 0.0000e+00 1.0000e+00
  1000011  2    1    2    0    0 -4.0944106610e+02 +2.5136065216e+02 -6.0946431095e+02 2.3801730486e+03 2.2501006269e+03 1.6865e+03 0.0000e+00
 -1000011  2    1    2    0    0 +4.0944106610e+02 -2.5136065216e+02 -2.9490972030e+02 2.3196424374e+03 2.2500989157e+03 1.0350e+03 0.0000e+00
       11  1    3    3    0    0 -8.9400357473e-02 +7.7945090600e-02 -6.5564624584e-02 1.3552432199e-01 5.1100000000e-04 0.0000e+00 1.0000e+00
  1000022  1    3    3    0    0 -4.0935166575e+02 +2.5128270707e+02 -6.0939874632e+02 2.3800375243e+03 2.2500000000e+03 0.0000e+00 0.0000e+00
      -11  1    4    4    0    0 +8.4717638530e-02 +4.0193043350e-02 +3.9060512831e-02 1.0158023189e-01 5.1100000000e-04 0.0000e+00 -1.0000e+00
  1000022  1    4    4    0    0 +4.0935634847e+02 -2.5140084520e+02 -2.9494878081e+02 2.3195408572e+03 2.2500000000e+03 0.0000e+00 0.0000e+00
<mgrwt>
<rscale>  0 0.46119815E+04</rscale>
<asrwt>0</asrwt>
<pdfrwt beam="1">  1        2 0.43109150E+00 0.46119815E+04</pdfrwt>
<pdfrwt beam="2">  1       -2 0.29195703E+00 0.46119815E+04</pdfrwt>
<totfact> 0.61614257E-02</totfact>
</mgrwt>
</event>
<event>
 8      1 +1.2359593e-08 4.68846400e+03 7.81860800e-03 7.87844800e-02
        2 -1    0    0  501    0 +0.0000000000e+00 +0.0000000000e+00 +2.4353335029e+03 2.4353335029e+03 2.5500000000e-03 0.0000e+00 1.0000e+00
       -2 -1    0    0    0  501 -0.0000000000e+00 -0.0000000000e+00 -2.2565383539e+03 2.2565383539e+03 2.5500000000e-03 0.0000e+00 -1.0000e+00
  1000011  2    1    2    0    0 +4.9140511980e+02 +4.3677428915e+02 +7.4192543510e+01 2.3453569144e+03 2.2500986091e+03 2.8421e+02 0.0000e+00
 -1000011  2    1    2    0    0 -4.9140511980e+02 -4.3677428915e+02 +1.0460260548e+02 2.3465149424e+03 2.2500977531e+03 4.6106e+02 0.0000e+00
       11  1    3    3    0    0 -5.7050254603e-03 -7.7706950874e-02 +1.5384218482e-02 7.9421990064e-02 5.1100000000e-04 0.0000e+00 1.0000e+00
  1000022  1    3    3    0    0 +4.9141082482e+02 +4.3685199610e+02 +7.4177159291e+01 2.3452774924e+03 2.2500000000e+03 0.0000e+00 0.0000e+00
      -11  1    4    4    0    0 -5.3804839359e-02 -1.1214266666e-01 -1.4525866215e-02 1.2522859019e-01 5.1100000000e-04 0.0000e+00 -1.0000e+00
  1000022  1    4    4    0    0 -4.9135131496e+02 -4.3666214648e+02 +1.0461713135e+02 2.3463897138e+03 2.2500000000e+03 0.0000e+00 0.0000e+00
<mgrwt>
<rscale>  0 0.46884639E+04</rscale>
<asrwt>0</asrwt>
<pdfrwt beam="1">  1        2 0.37466669E+00 0.46884639E+04</pdfrwt>
<pdfrwt beam="2">  1       -2 0.34715975E+00 0.46884639E+04</pdfrwt>
<totfact> 0.45904595E-02</totfact>
</mgrwt>
</event>
<event>
 8      1 +1.2359593e-08 5.24092700e+03 7.81860800e-03 7.79238000e-02
       -2 -1    0    0    0  501 -0.0000000000e+00 +0.0000000000e+00 +3.1253704388e+03 3.1253704388e+03 2.5500000000e-03 0.0000e+00 -1.0000e+00
        2 -1    0    0  501    0 +0.0000000000e+00 -0.0000000000e+00 -2.1971246519e+03 2.1971246519e+03 2.5500000000e-03 0.0000e+00 1.0000e+00
  1000011  2    1    2    0    0 -1.1173163776e+03 -5.9004350140e+02 +9.2654646241e+02 2.7418939156e+03 2.2500992591e+03 1.3581e+03 0.0000e+00
 -1000011  2    1    2    0    0 +1.1173163776e+03 +5.9004350140e+02 +1.6993245087e+00 2.5806011752e+03 2.2501005126e+03 6.7860e+02 0.0000e+00
       11  1    3    3    0    0 -4.2924830376e-02 -1.2678190969e-01 +3.9186204232e-02 1.3947047344e-01 5.1100000000e-04 0.0000e+00 1.0000e+00
  1000022  1    3    3    0    0 -1.1172734528e+03 -5.8991671949e+02 +9.2650727621e+02 2.7417544451e+03 2.2500000000e+03 0.0000e+00 0.0000e+00
      -11  1    4    4    0    0 +2.5619767509e-03 +3.0158672682e-02 +9.0788779586e-02 9.5702520964e-02 5.1100000000e-04 0.0000e+00 -1.0000e+00
  1000022  1    4    4    0    0 +1.1173138156e+03 +5.9001334272e+02 +1.6085357292e+00 2.5805054727e+03 2.2500000000e+03 0.0000e+00 0.0000e+00
<mgrwt>
<rscale>  0 0.52409268E+04</rscale>
<asrwt>0</asrwt>
<pdfrwt beam="1">  1        2 0.33801918E+00 0.52409268E+04</pdfrwt>
<pdfrwt beam="2">  1       -2 0.48082622E+00 0.52409268E+04</pdfrwt>
<totfact> 0.81246865E-03</totfact>
</mgrwt>
</event>
<event>
 8      1 +1.2359593e-08 5.41953200e+03 7.81860800e-03 7.76686000e-02
        2 -1    0    0  501    0 +0.0000000000e+00 +0.0000000000e+00 +3.3172820920e+03 3.3172820920e+03 2.5500000000e-03 0.0000e+00 1.0000e+00
       -2 -1    0    0    0  501 -0.0000000000e+00 -0.0000000000e+00 -2.2135081550e+03 2.2135081550e+03 2.5500000000e-03 0.0000e+00 -1.0000e+00
  1000011  2    1    2    0    0 -1.0096499988e+03 -3.6748621389e+02 +1.6345248147e+03 2.9814599306e+03 2.2501094885e+03 8.0058e+01 0.0000e+00
 -1000011  2    1    2    0    0 +1.0096499988e+03 +3.6748621389e+02 -5.3075087773e+02 2.5493303164e+03 2.2500998490e+03 2.6357e+02 0.0000e+00
       11  1    3    3    0    0 -5.5133267325e-02 +5.2373538774e-02 +1.7493415772e-01 1.9074822300e-01 5.1100000000e-04 0.0000e+00 1.0000e+00
  1000022  1    3    3    0    0 -1.0095948656e+03 -3.6753858743e+02 +1.6343498805e+03 2.9812691824e+03 2.2500000000e+03 0.0000e+00 0.0000e+00
      -11  1    4    4    0    0 -1.5191682669e-02 -1.0255405663e-02 -9.9721764770e-02 1.0139354762e-01 5.1100000000e-04 0.0000e+00 -1.0000e+00
  1000022  1    4    4    0    0 +1.0096651905e+03 +3.6749646929e+02 -5.3065115596e+02 2.5492289229e+03 2.2500000000e+03 0.0000e+00 0.0000e+00
<mgrwt>
<rscale>  0 0.54195317E+04</rscale>
<asrwt>0</asrwt>
<pdfrwt beam="1">  1        2 0.51035109E+00 0.54195317E+04</pdfrwt>
<pdfrwt beam="2">  1       -2 0.34053972E+00 0.54195317E+04</pdfrwt>
<totfact> 0.13610767E-02</totfact>
</mgrwt>
</event>
<event>
 8      1 +1.2359593e-08 4.68461400e+03 7.81860800e-03 7.87909000e-02
        2 -1    0    0  501    0 +0.0000000000e+00 +0.0000000000e+00 +2.6088240744e+03 2.6088240744e+03 2.5500000000e-03 0.0000e+00 1.0000e+00
       -2 -1    0    0    0  501 -0.0000000000e+00 -0.0000000000e+00 -2.1030168304e+03 2.1030168304e+03 2.5500000000e-03 0.0000e+00 -1.0000e+00
  1000011  2    1    2    0    0 -4.2617485923e+02 +3.3122825000e+02 +6.1851054858e+02 2.3951673657e+03 2.2500964973e+03 4.7725e+02 0.0000e+00
 -1000011  2    1    2    0    0 +4.2617485923e+02 -3.3122825000e+02 -1.1270330452e+02 2.3166735391e+03 2.2500971285e+03 1.5391e+03 0.0000e+00
       11  1    3    3    0    0 +7.7897245152e-02 +1.3400078940e-02 +4.1907379799e-02 8.9465256396e-02 5.1100000000e-04 0.0000e+00 1.0000e+00
  1000022  1    3    3    0    0 -4.2625275648e+02 +3.3121484992e+02 +6.1846864120e+02 2.3950779005e+03 2.2500000000e+03 0.0000e+00 0.0000e+00
      -11  1    4    4    0    0 +6.0782112362e-02 -8.2434316471e-02 -6.3255125174e-02 1.2038003603e-01 5.1100000000e-04 0.0000e+00 -1.0000e+00
  1000022  1    4    4    0    0 +4.2611407712e+02 -3.3114581568e+02 -1.1264004939e+02 2.3165531590e+03 2.2500000000e+03 0.0000e+00 0.0000e+00
<mgrwt>
<rscale>  0 0.46846135E+04</rscale>
<asrwt>0</asrwt>
<pdfrwt beam="1">  1        2 0.40135755E+00 0.46846135E+04</pdfrwt>
<pdfrwt beam="2">  1       -2 0.32354105E+00 0.46846135E+04</pdfrwt>
<totfact> 0.51103275E-02</totfact>
</mgrwt>
</event>
<event>
 8      1 +1.2359593e-08 4.66105700e+03 7.81860800e-03 7.88303100e-02
        2 -1    0    0  501    0 +0.0000000000e+00 +0.0000000000e+00 +2.5937261269e+03 2.5937261269e+03 2.5500000000e-03 0.0000e+00 1.0000e+00
       -2 -1    0    0    0  501 -0.0000000000e+00 -0.0000000000e+00 -2.0940391792e+03 2.0940391792e+03 2.5500000000e-03 0.0000e+00 -1.0000e+00
  1000011  2    1    2    0    0 -1.3105616788e+02 +5.9044968046e+02 +3.0118669015e+02 2.3493563483e+03 2.2501011721e+03 1.5937e+01 0.0000e+00
 -1000011  2    1    2    0    0 +1.3105616788e+02 -5.9044968046e+02 +1.9850025753e+02 2.3384089578e+03 2.2500994550e+03 4.8242e+01 0.0000e+00
       11  1    3    3    0    0 -1.2057439268e-02 +2.0542111195e-02 +1.1503752024e-01 1.1747873001e-01 5.1100000000e-04 0.0000e+00 1.0000e+00
  1000022  1    3    3    0    0 -1.3104411045e+02 +5.9042913835e+02 +3.0107165263e+02 2.3492388696e+03 2.2500000000e+03 0.0000e+00 0.0000e+00
      -11  1    4    4    0    0 -3.2520305598e-02 -1.0481469301e-01 +6.0899434282e-02 1.2550972958e-01 5.1100000000e-04 0.0000e+00 -1.0000e+00
  1000022  1    4    4    0    0 +1.3108868819e+02 -5.9034486577e+02 +1.9843935810e+02 2.3382834481e+03 2.2500000000e+03 0.0000e+00 0.0000e+00
<mgrwt>
<rscale>  0 0.46610574E+04</rscale>
<asrwt>0</asrwt>
<pdfrwt beam="1">  1        2 0.39903479E+00 0.46610574E+04</pdfrwt>
<pdfrwt beam="2">  1       -2 0.32215987E+00 0.46610574E+04</pdfrwt>
<totfact> 0.53297267E-02</totfact>
</mgrwt>
</event>
<event>
 8      1 +1.2359593e-08 4.86722800e+03 7.81860800e-03 7.84932100e-02
       -2 -1    0    0    0  501 -0.0000000000e+00 +0.0000000000e+00 +1.6604532232e+03 1.6604532232e+03 2.5500000000e-03 0.0000e+00 -1.0000e+00
        2 -1    0    0  501    0 +0.0000000000e+00 -0.0000000000e+00 -3.5667836322e+03 3.5667836322e+03 2.5500000000e-03 0.0000e+00 1.0000e+00
  1000011  2    1    2    0    0 -8.7416621547e+02 +2.8812919412e+02 -1.0724814220e+03 2.6571321537e+03 2.2500999704e+03 4.3740e+02 0.0000e+00
 -1000011  2    1    2    0    0 +8.7416621547e+02 -2.8812919412e+02 -8.3384898703e+02 2.5701047017e+03 2.2500997843e+03 6.5438e+01 0.0000e+00
       11  1    3    3    0    0 -1.0150441714e-01 -6.3388210385e-02 -3.0580058978e-02 1.2351766015e-01 5.1100000000e-04 0.0000e+00 1.0000e+00
  1000022  1    3    3    0    0 -8.7406471105e+02 +2.8819258233e+02 -1.0724508420e+03 2.6570086360e+03 2.2500000000e+03 0.0000e+00 0.0000e+00
      -11  1    4    4    0    0 +2.5169498072e-02 +8.7250864750e-02 -2.4056541960e-02 9.3942508292e-02 5.1100000000e-04 0.0000e+00 -1.0000e+00
  1000022  1    4    4    0    0 +8.7414104597e+02 -2.8821644499e+02 -8.3382493049e+02 2.5700107591e+03 2.2500000000e+03 0.0000e+00 0.0000e+00
<mgrwt>
<rscale>  0 0.48672281E+04</rscale>
<asrwt>0</asrwt>
<pdfrwt beam="1">  1        2 0.54873594E+00 0.48672281E+04</pdfrwt>
<pdfrwt beam="2">  1       -2 0.25545434E+00 0.48672281E+04</pdfrwt>
<totfact> 0.31846446E-02</totfact>
</mgrwt>
</event>
<event>
 8      1 +1.2359593e-08 5.23778200e+03 7.81860800e-03 7.79283800e-02
        2 -1    0    0  501    0 +0.0000000000e+00 +0.0000000000e+00 +2.8947230439e+03 2.8947230439e+03 2.5500000000e-03 0.0000e+00 1.0000e+00
       -2 -1    0    0    0  501 -0.0000000000e+00 -0.0000000000e+00 -2.3693424371e+03 2.3693424371e+03 2.5500000000e-03 0.0000e+00 -1.0000e+00
  1000011  2    1    2    0    0 -7.3655036545e+02 -7.5583382820e+02 -5.6719924931e+02 2.5492066441e+03 2.2500996221e+03 9.8978e+02 0.0000e+00
 -1000011  2    1    2    0    0 +7.3655036545e+02 +7.5583382820e+02 +1.0925798561e+03 2.7148588370e+03 2.2500970081e+03 1.7282e+02 0.0000e+00
       11  1    3    3    0    0 -8.1137236742e-02 -5.9496708200e-02 +5.7965178356e-02 1.1611775212e-01 5.1100000000e-04 0.0000e+00 1.0000e+00
  1000022  1    3    3    0    0 -7.3646922822e+02 -7.5577433149e+02 -5.6725721448e+02 2.5490905264e+03 2.2500000000e+03 0.0000e+00 0.0000e+00
      -11  1    4    4    0    0 +6.9814907112e-02 +7.0668644942e-02 +1.4876662504e-01 1.7888529278e-01 5.1100000000e-04 0.0000e+00 -1.0000e+00
  1000022  1    4    4    0    0 +7.3648055055e+02 +7.5576315956e+02 +1.0924310895e+03 2.7146799517e+03 2.2500000000e+03 0.0000e+00 0.0000e+00
<mgrwt>
<rscale>  0 0.52377820E+04</rscale>
<asrwt>0</asrwt>
<pdfrwt beam="1">  1        2 0.44534201E+00 0.52377820E+04</pdfrwt>
<pdfrwt beam="2">  1       -2 0.36451422E+00 0.52377820E+04</pdfrwt>
<totfact> 0.18200376E-02</totfact>
</mgrwt>
</event>
<event>
 8      1 +1.2359593e-08 5.50823800e+03 7.81860800e-03 7.75455700e-02
        2 -1    0    0  501    0 +0.0000000000e+00 +0.0000000000e+00 +3.3524961690e+03 3.3524961690e+03 2.5500000000e-03 0.0000e+00 1.0000e+00
       -2 -1    0    0    0  501 -0.0000000000e+00 -0.0000000000e+00 -2.2625443504e+03 2.2625443504e+03 2.5500000000e-03 0.0000e+00 -1.0000e+00
  1000011  2    1    2    0    0 +7.1174560025e+01 +1.0221233466e+03 -6.9198379467e+02 2.5674103920e+03 2.2501005744e+03 1.1335e+03 0.0000e+00
 -1000011  2    1    2    0    0 -7.1174560025e+01 -1.0221233466e+03 +1.7819356133e+03 3.0476301275e+03 2.2501006446e+03 8.1319e+01 0.0000e+00
       11  1    3    3    0    0 -3.1669799687e-02 +3.4469287899e-02 +6.8095188014e-02 8.2633670850e-02 5.1100000000e-04 0.0000e+00 1.0000e+00
  1000022  1    3    3    0    0 +7.1206229825e+01 +1.0220888773e+03 -6.9205188986e+02 2.5673277583e+03 2.2500000000e+03 0.0000e+00 0.0000e+00
      -11  1    4    4    0    0 +7.7271858189e-02 +4.2062374711e-03 +1.2481638988e-02 7.8388038841e-02 5.1100000000e-04 0.0000e+00 -1.0000e+00
  1000022  1    4    4    0    0 -7.1251831883e+01 -1.0221275528e+03 +1.7819231316e+03 3.0475517395e+03 2.2500000000e+03 0.0000e+00 0.0000e+00
<mgrwt>
<rscale>  0 0.55082379E+04</rscale>
<asrwt>0</asrwt>
<pdfrwt beam="1">  1        2 0.51576864E+00 0.55082379E+04</pdfrwt>
<pdfrwt beam="2">  1       -2 0.34808375E+00 0.55082379E+04</pdfrwt>
<totfact> 0.11473878E-02</totfact>
</mgrwt>
</event>
<event>
 8      1 +1.2359593e-08 5.18712500e+03 7.81860800e-03 7.80027200e-02
       -2 -1    0    0    0  501 -0.0000000000e+00 +0.0000000000e+00 +2.1143377299e+03 2.1143377299e+03 2.5500000000e-03 0.0000e+00 -1.0000e+00
        2 -1    0    0  501    0 +0.0000000000e+00 -0.0000000000e+00 -3.1814053093e+03 3.1814053093e+03 2.5500000000e-03 0.0000e+00 1.0000e+00
  1000011  2    1    2    0    0 +8.4055179702e+02 -9.4747525669e+02 -7.8231467629e+02 2.6979992973e+03 2.2500993911e+03 1.5114e+03 0.0000e+00
 -1000011  2    1    2    0    0 -8.4055179702e+02 +9.4747525669e+02 -2.8475290308e+02 2.5977437419e+03 2.2501003638e+03 2.0311e+03 0.0000e+00
       11  1    3    3    0    0 +1.9417118839e-02 -3.7364450187e-02 -1.3468269681e-01 1.4111277873e-01 5.1100000000e-04 0.0000e+00 1.0000e+00
  1000022  1    3    3    0    0 +8.4053237990e+02 -9.4743789224e+02 -7.8217999359e+02 2.6978581845e+03 2.2500000000e+03 0.0000e+00 0.0000e+00
      -11  1    4    4    0    0 +1.4988449925e-02 +2.5921969447e-02 +7.7457027214e-02 8.3044890553e-02 5.1100000000e-04 0.0000e+00 -1.0000e+00
  1000022  1    4    4    0    0 -8.4056678547e+02 +9.4744933472e+02 -2.8483036010e+02 2.5976606970e+03 2.2500000000e+03 0.0000e+00 0.0000e+00
<mgrwt>
<rscale>  0 0.51871246E+04</rscale>
<asrwt>0</asrwt>
<pdfrwt beam="1">  1        2 0.48944697E+00 0.51871246E+04</pdfrwt>
<pdfrwt beam="2">  1       -2 0.32528273E+00 0.51871246E+04</pdfrwt>
<totfact> 0.21222624E-02</totfact>
</mgrwt>
</event>
<event>
 8      1 +1.2359593e-08 4.99652400e+03 7.81860800e-03 7.82904400e-02
        2 -1    0    0  501    0 +0.0000000000e+00 +0.0000000000e+00 +3.1661128156e+03 3.1661128156e+03 2.5500000000e-03 0.0000e+00 1.0000e+00
       -2 -1    0    0    0  501 -0.0000000000e+00 -0.0000000000e+00 -1.9712859060e+03 1.9712859060e+03 2.5500000000e-03 0.0000e+00 -1.0000e+00
  1000011  2    1    2    0    0 +4.3445982435e+02 +4.5911074682e+02 +1.5048066133e+03 2.7797362496e+03 2.2501005882e+03 1.9184e+02 0.0000e+00
 -1000011  2    1    2    0    0 -4.3445982435e+02 -4.5911074682e+02 -3.0997970361e+02 2.3576624720e+03 2.2500993086e+03 1.8591e+02 0.0000e+00
       11  1    3    3    0    0 +7.8491920681e-02 +3.9252305875e-02 +1.7253762395e-01 1.9357483713e-01 5.1100000000e-04 0.0000e+00 1.0000e+00
  1000022  1    3    3    0    0 +4.3438133243e+02 +4.5907149452e+02 +1.5046340756e+03 2.7795426747e+03 2.2500000000e+03 0.0000e+00 0.0000e+00
      -11  1    4    4    0    0 +2.3963185458e-02 -1.0926843816e-01 -1.8543612032e-03 1.1188174578e-01 5.1100000000e-04 0.0000e+00 -1.0000e+00
  1000022  1    4    4    0    0 -4.3448378754e+02 -4.5900147839e+02 -3.0997784925e+02 2.3575505903e+03 2.2500000000e+03 0.0000e+00 0.0000e+00
<mgrwt>
<rscale>  0 0.49965242E+04</rscale>
<asrwt>0</asrwt>
<pdfrwt beam="1">  1        2 0.48709428E+00 0.49965242E+04</pdfrwt>
<pdfrwt beam="2">  1       -2 0.30327476E+00 0.49965242E+04</pdfrwt>
<totfact> 0.30125900E-02</totfact>
</mgrwt>
</event>
<event>
 8      1 +1.2359593e-08 4.86710700e+03 7.81860800e-03 7.84934100e-02
       -2 -1    0    0    0  501 -0.0000000000e+00 +0.0000000000e+00 +1.6457202377e+03 1.6457202377e+03 2.5500000000e-03 0.0000e+00 -1.0000e+00
        2 -1    0    0  501    0 +0.0000000000e+00 -0.0000000000e+00 -3.5985360526e+03 3.5985360526e+03 2.5500000000e-03 0.0000e+00 1.0000e+00
  1000011  2    1    2    0    0 -6.7167173884e+02 +2.2243170986e+02 -3.3115611251e+02 2.3818541634e+03 2.2500991300e+03 1.9092e+03 0.0000e+00
 -1000011  2    1    2    0    0 +6.7167173884e+02 -2.2243170986e+02 -1.6216597023e+03 2.8624021268e+03 2.2500993212e+03 6.8345e+02 0.0000e+00
       11  1    3    3    0    0 +3.3419699143e-03 +6.4408714747e-02 +6.2757888313e-02 8.9991469951e-02 5.1100000000e-04 0.0000e+00 1.0000e+00
  1000022  1    3    3    0    0 -6.7167508081e+02 +2.2236730115e+02 -3.3121887040e+02 2.3817641720e+03 2.2500000000e+03 0.0000e+00 0.0000e+00
      -11  1    4    4    0    0 +1.2904166641e-01 -4.0311210308e-02 -9.9333827140e-02 1.6776237744e-01 5.1100000000e-04 0.0000e+00 -1.0000e+00
  1000022  1    4    4    0    0 +6.7154269717e+02 -2.2239139865e+02 -1.6215603685e+03 2.8622343644e+03 2.2500000000e+03 0.0000e+00 0.0000e+00
<mgrwt>
<rscale>  0 0.48671074E+04</rscale>
<asrwt>0</asrwt>
<pdfrwt beam="1">  1        2 0.55362093E+00 0.48671074E+04</pdfrwt>
<pdfrwt beam="2">  1       -2 0.25318773E+00 0.48671074E+04</pdfrwt>
<totfact> 0.31202573E-02</totfact>
</mgrwt>
</event>
<event>
 8      1 +1.2359593e-08 5.53556500e+03 7.81860800e-03 7.75081400e-02
       -2 -1    0    0    0  501 -0.0000000000e+00 +0.0000000000e+00 +2.9085040615e+03 2.9085040615e+03 2.5500000000e-03 0.0000e+00 -1.0000e+00
        2 -1    0    0  501    0 +0.0000000000e+00 -0.0000000000e+00 -2.6338691712e+03 2.6338691712e+03 2.5500000000e-03 0.0000e+00 1.0000e+00
  1000011  2    1    2    0    0 -2.0682829522e+01 +1.6113812237e+03 +1.6363748049e+02 2.7724915725e+03 2.2501011237e+03 1.3541e+03 0.0000e+00
 -1000011  2    1    2    0    0 +2.0682829522e+01 -1.6113812237e+03 +1.1099740985e+02 2.7698816602e+03 2.2500992776e+03 8.0040e+02 0.0000e+00
       11  1    3    3    0    0 -5.7440050501e-02 +7.5708300562e-02 -7.6478213318e-02 1.2198476962e-01 5.1100000000e-04 0.0000e+00 1.0000e+00
  1000022  1    3    3    0    0 -2.0625389472e+01 +1.6113055154e+03 +1.6371395870e+02 2.7723695877e+03 2.2500000000e+03 0.0000e+00 0.0000e+00
      -11  1    4    4    0    0 +7.6872496083e-02 -8.8271049585e-02 +6.7838012587e-02 1.3529011700e-01 5.1100000000e-04 0.0000e+00 -1.0000e+00
  1000022  1    4    4    0    0 +2.0605957026e+01 -1.6112929526e+03 +1.1092957184e+02 2.7697463701e+03 2.2500000000e+03 0.0000e+00 0.0000e+00
<mgrwt>
<rscale>  0 0.55355647E+04</rscale>
<asrwt>0</asrwt>
<pdfrwt beam="1">  1        2 0.40521064E+00 0.55355647E+04</pdfrwt>
<pdfrwt beam="2">  1       -2 0.44746216E+00 0.55355647E+04</pdfrwt>
<totfact> 0.73450281E-03</totfact>
</mgrwt>
</event>
<event>
 8      1 +1.2359593e-08 4.74632400e+03 7.81860800e-03 7.86887700e-02
       -2 -1    0    0    0  501 -0.0000000000e+00 +0.0000000000e+00 +1.6785350538e+03 1.6785350538e+03 2.5500000000e-03 0.0000e+00 -1.0000e+00
        2 -1    0    0  501    0 +0.0000000000e+00 -0.0000000000e+00 -3.3552464665e+03 3.3552464665e+03 2.5500000000e-03 0.0000e+00 1.0000e+00
  1000011  2    1    2    0    0 -4.9660026330e+02 -5.4359523409e+01 -1.4376990181e+03 2.7165328343e+03 2.2501123070e+03 1.7241e+03 0.0000e+00
 -1000011  2    1    2    0    0 +4.9660026330e+02 +5.4359523409e+01 -2.3901239469e+02 2.3172486859e+03 2.2500995019e+03 8.0898e+02 0.0000e+00
       11  1    3    3    0    0 +4.9184330827e-02 +7.0916728627e-02 -1.1385296395e-01 1.4286720675e-01 5.1100000000e-04 0.0000e+00 1.0000e+00
  1000022  1    3    3    0    0 -4.9664944763e+02 -5.4430440137e+01 -1.4375851651e+03 2.7163899671e+03 2.2500000000e+03 0.0000e+00 0.0000e+00
      -11  1    4    4    0    0 -5.6265108012e-02 -2.9796231257e-02 +4.6818398209e-02 7.9030379238e-02 5.1100000000e-04 0.0000e+00 -1.0000e+00
  1000022  1    4    4    0    0 +4.9665652841e+02 +5.4389319640e+01 -2.3905921308e+02 2.3171696556e+03 2.2500000000e+03 0.0000e+00 0.0000e+00
<mgrwt>
<rscale>  0 0.47463244E+04</rscale>
<asrwt>0</asrwt>
<pdfrwt beam="1">  1        2 0.51619176E+00 0.47463244E+04</pdfrwt>
<pdfrwt beam="2">  1       -2 0.25823616E+00 0.47463244E+04</pdfrwt>
<totfact> 0.43385577E-02</totfact>
</mgrwt>
</event>
<event>
 8      1 +1.2359593e-08 5.58630600e+03 7.81860800e-03 7.74392400e-02
       -2 -1    0    0    0  501 -0.0000000000e+00 +0.0000000000e+00 +1.8894190055e+03 1.8894190055e+03 2.5500000000e-03 0.0000e+00 -1.0000e+00
        2 -1    0    0  501    0 +0.0000000000e+00 -0.0000000000e+00 -4.1291550811e+03 4.1291550811e+03 2.5500000000e-03 0.0000e+00 1.0000e+00
  1000011  2    1    2    0    0 -2.5810805858e+02 +1.5350147129e+03 -1.7253807616e+03 3.2346218641e+03 2.2500999739e+03 1.1439e+02 0.0000e+00
 -1000011  2    1    2    0    0 +2.5810805858e+02 -1.5350147129e+03 -5.1435531397e+02 2.7839522224e+03 2.2500974754e+03 8.7177e+02 0.0000e+00
       11  1    3    3    0    0 -7.1916441391e-02 +1.5565951077e-01 -1.5980939390e-01 2.3439530931e-01 5.1100000000e-04 0.0000e+00 1.0000e+00
  1000022  1    3    3    0    0 -2.5803614214e+02 +1.5348590534e+03 -1.7252209522e+03 3.2343874688e+03 2.2500000000e+03 0.0000e+00 0.0000e+00
      -11  1    4    4    0    0 +2.8884934897e-02 +4.4450102918e-02 +1.2916979087e-02 5.4564278302e-02 5.1100000000e-04 0.0000e+00 -1.0000e+00
  1000022  1    4    4    0    0 +2.5807917365e+02 -1.5350591630e+03 -5.1436823095e+02 2.7838976581e+03 2.2500000000e+03 0.0000e+00 0.0000e+00
<mgrwt>
<rscale>  0 0.55863061E+04</rscale>
<asrwt>0</asrwt>
<pdfrwt beam="1">  1        2 0.63525463E+00 0.55863061E+04</pdfrwt>
<pdfrwt beam="2">  1       -2 0.29067985E+00 0.55863061E+04</pdfrwt>
<totfact> 0.66940920E-03</totfact>
</mgrwt>
</event>
<event>
 8      1 +1.2359593e-08 4.52715400e+03 7.81860800e-03 7.90590000e-02
        2 -1    0    0  501    0 +0.0000000000e+00 +0.0000000000e+00 +2.3127986773e+03 2.3127986773e+03 2.5500000000e-03 0.0000e+00 1.0000e+00
       -2 -1    0    0    0  501 -0.0000000000e+00 -0.0000000000e+00 -2.2154026981e+03 2.2154026981e+03 2.5500000000e-03 0.0000e+00 -1.0000e+00
  1000011  2    1    2    0    0 +5.5427438968e+00 +1.2865836778e+02 +2.5909087780e+02 2.2686265459e+03 2.2501010253e+03 5.9152e+01 0.0000e+00
 -1000011  2    1    2    0    0 -5.5427438968e+00 -1.2865836778e+02 -1.6169489865e+02 2.2595748295e+03 2.2500998805e+03 4.0072e+01 0.0000e+00
       11  1    3    3    0    0 -6.4798114982e-02 -6.6848366530e-02 -1.5843399356e-02 9.4439260238e-02 5.1100000000e-04 0.0000e+00 1.0000e+00
  1000022  1    3    3    0    0 +5.6075420118e+00 +1.2872521615e+02 +2.5910672120e+02 2.2685321066e+03 2.2500000000e+03 0.0000e+00 0.0000e+00
      -11  1    4    4    0    0 -3.8257764941e-02 -6.6955665710e-02 -7.6840719950e-02 1.0886447925e-01 5.1100000000e-04 0.0000e+00 -1.0000e+00
  1000022  1    4    4    0    0 -5.5044861319e+00 -1.2859141211e+02 -1.6161805793e+02 2.2594659651e+03 2.2500000000e+03 0.0000e+00 0.0000e+00
<mgrwt>
<rscale>  0 0.45271538E+04</rscale>
<asrwt>0</asrwt>
<pdfrwt beam="1">  1        2 0.35581518E+00 0.45271538E+04</pdfrwt>
<pdfrwt beam="2">  1       -2 0.34083119E+00 0.45271538E+04</pdfrwt>
<totfact> 0.59886292E-02</totfact>
</mgrwt>
</event>
<event>
 8      1 +1.2359593e-08 5.06259800e+03 7.81860800e-03 7.81892300e-02
       -2 -1    0    0    0  501 -0.0000000000e+00 +0.0000000000e+00 +1.7480696991e+03 1.7480696991e+03 2.5500000000e-03 0.0000e+00 -1.0000e+00
        2 -1    0    0  501    0 +0.0000000000e+00 -0.0000000000e+00 -3.6654569227e+03 3.6654569227e+03 2.5500000000e-03 0.0000e+00 1.0000e+00
  1000011  2    1    2    0    0 +5.0606691937e+02 -1.0199891988e+03 -7.2431740947e+02 2.6237510581e+03 2.2501004894e+03 1.2617e+03 0.0000e+00
 -1000011  2    1    2    0    0 -5.0606691937e+02 +1.0199891988e+03 -1.1930698142e+03 2.7897755637e+03 2.2501000915e+03 6.4957e+02 0.0000e+00
       11  1    3    3    0    0 +1.2172437803e-01 -3.2375988594e-02 -1.8201645045e-02 1.2726582285e-01 5.1100000000e-04 0.0000e+00 1.0000e+00
  1000022  1    3    3    0    0 +5.0594519499e+02 -1.0199568229e+03 -7.2429920782e+02 2.6236237923e+03 2.2500000000e+03 0.0000e+00 0.0000e+00
      -11  1    4    4    0    0 -5.1062809484e-02 +1.2299396708e-02 +5.0523156812e-02 7.2880285503e-02 5.1100000000e-04 0.0000e+00 -1.0000e+00
  1000022  1    4    4    0    0 -5.0601585656e+02 +1.0199768994e+03 -1.1931203373e+03 2.7897026834e+03 2.2500000000e+03 0.0000e+00 0.0000e+00
<mgrwt>
<rscale>  0 0.50625978E+04</rscale>
<asrwt>0</asrwt>
<pdfrwt beam="1">  1        2 0.56391645E+00 0.50625978E+04</pdfrwt>
<pdfrwt beam="2">  1       -2 0.26893380E+00 0.50625978E+04</pdfrwt>
<totfact> 0.21997018E-02</totfact>
</mgrwt>
</event>
<event>
 8      1 +1.2359593e-08 4.84462800e+03 7.81860800e-03 7.85293200e-02
       -2 -1    0    0    0  501 -0.0000000000e+00 +0.0000000000e+00 +1.7347421886e+03 1.7347421886e+03 2.5500000000e-03 0.0000e+00 -1.0000e+00
        2 -1    0    0  501    0 +0.0000000000e+00 -0.0000000000e+00 -3.3824078533e+03 3.3824078533e+03 2.5500000000e-03 0.0000e+00 1.0000e+00
  1000011  2    1    2    0    0 +4.9104685751e+02 +6.1288989766e+02 -3.6607091414e+02 2.4111668582e+03 2.2501014780e+03 1.9382e+03 0.0000e+00
 -1000011  2    1    2    0    0 -4.9104685751e+02 -6.1288989766e+02 -1.2815947506e+03 2.7059831837e+03 2.2501330722e+03 3.0662e+02 0.0000e+00
       11  1    3    3    0    0 +5.9167953109e-02 +8.4743393942e-02 -9.9365366951e-02 1.4337372956e-01 5.1100000000e-04 0.0000e+00 1.0000e+00
  1000022  1    3    3    0    0 +4.9098768956e+02 +6.1280515427e+02 -3.6597154878e+02 2.4110234845e+03 2.2500000000e+03 0.0000e+00 0.0000e+00
      -11  1    4    4    0    0 +9.5176627554e-02 +2.4365155337e-02 -7.3295332217e-02 1.2257535611e-01 5.1100000000e-04 0.0000e+00 -1.0000e+00
  1000022  1    4    4    0    0 -4.9114203414e+02 -6.1291426281e+02 -1.2815214553e+03 2.7058606083e+03 2.2500000000e+03 0.0000e+00 0.0000e+00
<mgrwt>
<rscale>  0 0.48446282E+04</rscale>
<asrwt>0</asrwt>
<pdfrwt beam="1">  1        2 0.52037044E+00 0.48446282E+04</pdfrwt>
<pdfrwt beam="2">  1       -2 0.26688342E+00 0.48446282E+04</pdfrwt>
<totfact> 0.36525768E-02</totfact>
</mgrwt>
</event>
<event>
 8      1 +1.2359593e-08 6.31688800e+03 7.81860800e-03 7.65230700e-02
        2 -1    0    0  501    0 +0.0000000000e+00 +0.0000000000e+00 +3.7872372290e+03 3.7872372290e+03 2.5500000000e-03 0.0000e+00 1.0000e+00
       -2 -1    0    0    0  501 -0.0000000000e+00 -0.0000000000e+00 -2.6340489338e+03 2.6340489338e+03 2.5500000000e-03 0.0000e+00 -1.0000e+00
  1000011  2    1    2    0    0 -1.0490740752e+03 -1.9405380631e+03 +7.9596010675e+02 3.2500386430e+03 2.2501009533e+03 3.5298e+02 0.0000e+00
 -1000011  2    1    2    0    0 +1.0490740752e+03 +1.9405380631e+03 +3.5722818842e+02 3.1712475197e+03 2.2501009896e+03 2.5615e+03 0.0000e+00
       11  1    3    3    0    0 -6.3267253474e-03 +3.7738012929e-02 +4.7568585832e-02 6.1050933173e-02 5.1100000000e-04 0.0000e+00 1.0000e+00
  1000022  1    3    3    0    0 -1.0490677485e+03 -1.9405758011e+03 +7.9591253817e+02 3.2499775921e+03 2.2500000000e+03 0.0000e+00 0.0000e+00
      -11  1    4    4    0    0 +3.0734565097e-02 -2.6451977966e-02 -4.4986452770e-02 6.0567008586e-02 5.1100000000e-04 0.0000e+00 -1.0000e+00
  1000022  1    4    4    0    0 +1.0490433407e+03 +1.9405645150e+03 +3.5727317487e+02 3.1711869527e+03 2.2500000000e+03 0.0000e+00 0.0000e+00
<mgrwt>
<rscale>  0 0.63168879E+04</rscale>
<asrwt>0</asrwt>
<pdfrwt beam="1">  1        2 0.58265188E+00 0.63168879E+04</pdfrwt>
<pdfrwt beam="2">  1       -2 0.40523830E+00 0.63168879E+04</pdfrwt>
<totfact> 0.22576181E-03</totfact>
</mgrwt>
</event>
<event>
 8      1 +1.2359593e-08 4.87009200e+03 7.81860800e-03 7.84886500e-02
       -1 -1    0    0    0  501 -0.0000000000e+00 +0.0000000000e+00 +1.4699314736e+03 1.4699314736e+03 5.0400000000e-03 0.0000e+00 -1.0000e+00
        1 -1    0    0  501    0 +0.0000000000e+00 -0.0000000000e+00 -4.0338262416e+03 4.0338262416e+03 5.0400000000e-03 0.0000e+00 1.0000e+00
  1000011  2    1    2    0    0 +2.4526507821e+02 -8.9239428110e+02 -1.3947715706e+03 2.8044359864e+03 2.2501002103e+03 1.1797e+03 0.0000e+00
 -1000011  2    1    2    0    0 -2.4526507821e+02 +8.9239428110e+02 -1.1691231975e+03 2.6993217288e+03 2.2501036049e+03 5.9141e+01 0.0000e+00
       11  1    3    3    0    0 +6.7211256301e-02 +4.1581467830e-02 -1.4805403222e-02 8.0410399414e-02 5.1100000000e-04 0.0000e+00 1.0000e+00
  1000022  1    3    3    0    0 +2.4519786696e+02 -8.9243586257e+02 -1.3947567652e+03 2.8043555760e+03 2.2500000000e+03 0.0000e+00 0.0000e+00
      -11  1    4    4    0    0 -8.0524790313e-02 +1.1788338659e-01 -3.1056252268e-02 1.4610094544e-01 5.1100000000e-04 0.0000e+00 -1.0000e+00
  1000022  1    4    4    0    0 -2.4518455342e+02 +8.9227639771e+02 -1.1690921412e+03 2.6991756278e+03 2.2500000000e+03 0.0000e+00 0.0000e+00
<mgrwt>
<rscale>  0 0.48700916E+04</rscale>
<asrwt>0</asrwt>
<pdfrwt beam="1">  1        1 0.62058865E+00 0.48700916E+04</pdfrwt>
<pdfrwt beam="2">  1       -1 0.22614330E+00 0.48700916E+04</pdfrwt>
<totfact> 0.65172296E-03</totfact>
</mgrwt>
</event>
<event>
 8      1 +1.2359593e-08 4.99151600e+03 7.81860800e-03 7.82981700e-02
       -2 -1    0    0    0  501 -0.0000000000e+00 +0.0000000000e+00 +2.4287745733e+03 2.4287745733e+03 2.5500000000e-03 0.0000e+00 -1.0000e+00
        2 -1    0    0  501    0 +0.0000000000e+00 -0.0000000000e+00 -2.5645891287e+03 2.5645891287e+03 2.5500000000e-03 0.0000e+00 1.0000e+00
  1000011  2    1    2    0    0 -2.6467779159e+01 +1.0783877794e+03 -1.1492985987e+02 2.4979568264e+03 2.2501019283e+03 1.0140e+03 0.0000e+00
 -1000011  2    1    2    0    0 +2.6467779159e+01 -1.0783877794e+03 -2.0884695453e+01 2.4954068756e+03 2.2501107880e+03 5.3642e+01 0.0000e+00
       11  1    3    3    0    0 -6.2328640586e-02 +1.3575196746e-01 -3.0641104280e-02 1.5248801358e-01 5.1100000000e-04 0.0000e+00 1.0000e+00
  1000022  1    3    3    0    0 -2.6405450519e+01 +1.0782520274e+03 -1.1489921877e+02 2.4978043384e+03 2.2500000000e+03 0.0000e+00 0.0000e+00
      -11  1    4    4    0    0 -1.8451224181e-02 -6.7266847427e-02 +1.0717119965e-01 1.2787182308e-01 5.1100000000e-04 0.0000e+00 -1.0000e+00
  1000022  1    4    4    0    0 +2.6486230384e+01 -1.0783205125e+03 -2.0991866653e+01 2.4952790038e+03 2.2500000000e+03 0.0000e+00 0.0000e+00
<mgrwt>
<rscale>  0 0.49915163E+04</rscale>
<asrwt>0</asrwt>
<pdfrwt beam="1">  1        2 0.39455218E+00 0.49915163E+04</pdfrwt>
<pdfrwt beam="2">  1       -2 0.37365762E+00 0.49915163E+04</pdfrwt>
<totfact> 0.25586753E-02</totfact>
</mgrwt>
</event>
<event>
 8      1 +1.2359593e-08 6.31710600e+03 7.81860800e-03 7.65228100e-02
        2 -1    0    0  501    0 +0.0000000000e+00 +0.0000000000e+00 +3.5946502533e+03 3.5946502533e+03 2.5500000000e-03 0.0000e+00 1.0000e+00
       -2 -1    0    0    0  501 -0.0000000000e+00 -0.0000000000e+00 -2.7753620452e+03 2.7753620452e+03 2.5500000000e-03 0.0000e+00 -1.0000e+00
  1000011  2    1    2    0    0 -1.1145208022e+03 +1.1368802110e+03 +1.9649113743e+03 3.3850370426e+03 2.2500990729e+03 8.0687e+02 0.0000e+00
 -1000011  2    1    2    0    0 +1.1145208022e+03 -1.1368802110e+03 -1.1456231662e+03 2.9849752559e+03 2.2501047991e+03 9.6289e+02 0.0000e+00
       11  1    3    3    0    0 -2.5053645385e-02 +1.0984839264e-01 +2.9507105431e-03 1.1270901428e-01 5.1100000000e-04 0.0000e+00 1.0000e+00
  1000022  1    3    3    0    0 -1.1144957486e+03 +1.1367703626e+03 +1.9649084236e+03 3.3849243336e+03 2.2500000000e+03 0.0000e+00 0.0000e+00
      -11  1    4    4    0    0 -2.8923436847e-03 -7.8675818851e-02 -1.4203187028e-01 1.6239323656e-01 5.1100000000e-04 0.0000e+00 -1.0000e+00
  1000022  1    4    4    0    0 +1.1145236946e+03 -1.1368015351e+03 -1.1454811344e+03 2.9848128627e+03 2.2500000000e+03 0.0000e+00 0.0000e+00
<mgrwt>
<rscale>  0 0.63171056E+04</rscale>
<asrwt>0</asrwt>
<pdfrwt beam="1">  1        2 0.55302312E+00 0.63171056E+04</pdfrwt>
<pdfrwt beam="2">  1       -2 0.42697878E+00 0.63171056E+04</pdfrwt>
<totfact> 0.22568423E-03</totfact>
</mgrwt>
</event>
<event>
 8      1 +1.2359593e-08 4.55206100e+03 7.81860800e-03 7.90158500e-02
        2 -1    0    0  501    0 +0.0000000000e+00 +0.0000000000e+00 +2.3016465662e+03 2.3016465663e+03 2.5500000000e-03 0.0000e+00 1.0000e+00
       -2 -1    0    0    0  501 -0.0000000000e+00 -0.0000000000e+00 -2.2506990830e+03 2.2506990831e+03 2.5500000000e-03 0.0000e+00 -1.0000e+00
  1000011  2    1    2    0    0 +9.3873422399e+01 -2.8682870933e+02 +1.8760677592e+02 2.2779876605e+03 2.2500996758e+03 6.8544e+02 0.0000e+00
 -1000011  2    1    2    0    0 -9.3873422399e+01 +2.8682870933e+02 -1.3665929272e+02 2.2743579888e+03 2.2500990136e+03 1.0301e+03 0.0000e+00
       11  1    3    3    0    0 -6.8801892377e-02 -6.4297795135e-02 +5.3044149915e-02 1.0808260450e-01 5.1100000000e-04 0.0000e+00 1.0000e+00
  1000022  1    3    3    0    0 +9.3942224292e+01 -2.8676441153e+02 +1.8755373177e+02 2.2778795779e+03 2.2500000000e+03 0.0000e+00 0.0000e+00
      -11  1    4    4    0    0 +8.9354240662e-02 +3.6686748405e-02 +1.6100951238e-02 9.7926499506e-02 5.1100000000e-04 0.0000e+00 -1.0000e+00
  1000022  1    4    4    0    0 -9.3962776640e+01 +2.8679202258e+02 -1.3667539367e+02 2.2742600623e+03 2.2500000000e+03 0.0000e+00 0.0000e+00
<mgrwt>
<rscale>  0 0.45520606E+04</rscale>
<asrwt>0</asrwt>
<pdfrwt beam="1">  1        2 0.35409947E+00 0.45520606E+04</pdfrwt>
<pdfrwt beam="2">  1       -2 0.34626140E+00 0.45520606E+04</pdfrwt>
<totfact> 0.56065620E-02</totfact>
</mgrwt>
</event>
<event>
 8      1 +1.2359593e-08 4.60808200e+03 7.81860800e-03 7.89198300e-02
        2 -1    0    0  501    0 +0.0000000000e+00 +0.0000000000e+00 +2.8092432289e+03 2.8092432289e+03 2.5500000000e-03 0.0000e+00 1.0000e+00
       -2 -1    0    0    0  501 -0.0000000000e+00 -0.0000000000e+00 -1.8896920252e+03 1.8896920252e+03 2.5500000000e-03 0.0000e+00 -1.0000e+00
  1000011  2    1    2    0    0 +6.1930324813e+01 -4.9109646602e+02 +4.3398551894e+02 2.3444210666e+03 2.2501012428e+03 3.3082e+03 0.0000e+00
 -1000011  2    1    2    0    0 -6.1930324813e+01 +4.9109646602e+02 +4.8556568475e+02 2.3545141875e+03 2.2501004246e+03 1.5013e+03 0.0000e+00
       11  1    3    3    0    0 -2.0897380091e-02 +7.8454060876e-02 +2.3583308885e-02 8.4546871760e-02 5.1100000000e-04 0.0000e+00 1.0000e+00
  1000022  1    3    3    0    0 +6.1951222194e+01 -4.9117492008e+02 +4.3396193563e+02 2.3443365197e+03 2.2500000000e+03 0.0000e+00 0.0000e+00
      -11  1    4    4    0    0 -6.1892670324e-03 +5.0200385774e-03 -8.0235651989e-02 8.0632056108e-02 5.1100000000e-04 0.0000e+00 -1.0000e+00
  1000022  1    4    4    0    0 -6.1924135546e+01 +4.9109144598e+02 +4.8564592040e+02 2.3544335554e+03 2.2500000000e+03 0.0000e+00 0.0000e+00
<mgrwt>
<rscale>  0 0.46080818E+04</rscale>
<asrwt>0</asrwt>
<pdfrwt beam="1">  1        2 0.43219126E+00 0.46080818E+04</pdfrwt>
<pdfrwt beam="2">  1       -2 0.29072185E+00 0.46080818E+04</pdfrwt>
<totfact> 0.62091118E-02</totfact>
</mgrwt>
</event>
<event>
 8      1 +1.2359593e-08 5.27969000e+03 7.81860800e-03 7.78675300e-02
        2 -1    0    0  501    0 +0.0000000000e+00 +0.0000000000e+00 +2.0979915868e+03 2.0979915868e+03 2.5500000000e-03 0.0000e+00 1.0000e+00
       -2 -1    0    0    0  501 -0.0000000000e+00 -0.0000000000e+00 -3.3216438001e+03 3.3216438001e+03 2.5500000000e-03 0.0000e+00 -1.0000e+00
  1000011  2    1    2    0    0 +2.8692164897e+02 -1.2878917690e+03 -1.9505380846e+02 2.6157181265e+03 2.2500991284e+03 9.5710e+02 0.0000e+00
 -1000011  2    1    2    0    0 -2.8692164897e+02 +1.2878917690e+03 -1.0285984049e+03 2.8039172604e+03 2.2500995718e+03 6.1961e+02 0.0000e+00
       11  1    3    3    0    0 +4.5414788058e-02 +1.6238459624e-02 +6.0933426106e-02 7.7713149977e-02 5.1100000000e-04 0.0000e+00 1.0000e+00
  1000022  1    3    3    0    0 +2.8687623418e+02 -1.2879080075e+03 -1.9511474189e+02 2.6156404134e+03 2.2500000000e+03 0.0000e+00 0.0000e+00
      -11  1    4    4    0    0 +2.6107061697e-02 +1.3509549999e-01 +4.4077520172e-03 1.3766648777e-01 5.1100000000e-04 0.0000e+00 -1.0000e+00
  1000022  1    4    4    0    0 -2.8694775603e+02 +1.2877566735e+03 -1.0286028127e+03 2.8037795939e+03 2.2500000000e+03 0.0000e+00 0.0000e+00
<mgrwt>
<rscale>  0 0.52796897E+04</rscale>
<asrwt>0</asrwt>
<pdfrwt beam="1">  1        2 0.32276794E+00 0.52796897E+04</pdfrwt>
<pdfrwt beam="2">  1       -2 0.51102212E+00 0.52796897E+04</pdfrwt>
<totfact> 0.59808113E-03</totfact>
</mgrwt>
</event>
<event>
 8      1 +1.2359593e-08 5.20004400e+03 7.81860800e-03 7.79836800e-02
        2 -1    0    0  501    0 +0.0000000000e+00 +0.0000000000e+00 +3.1523588637e+03 3.1523588637e+03 2.5500000000e-03 0.0000e+00 1.0000e+00
       -2 -1    0    0    0  501 -0.0000000000e+00 -0.0000000000e+00 -2.1444622478e+03 2.1444622478e+03 2.5500000000e-03 0.0000e+00 -1.0000e+00
  1000011  2    1    2    0    0 -8.8154574186e+02 +9.0180200872e+02 +8.3681776314e+02 2.7117511261e+03 2.2501023184e+03 4.7917e+02 0.0000e+00
 -1000011  2    1    2    0    0 +8.8154574186e+02 -9.0180200872e+02 +1.7107885283e+02 2.5850699854e+03 2.2500997972e+03 1.8334e+03 0.0000e+00
       11  1    3    3    0    0 +5.6307137530e-02 +3.3029085439e-02 +7.7854737591e-02 1.0160233786e-01 5.1100000000e-04 0.0000e+00 1.0000e+00
  1000022  1    3    3    0    0 -8.8160204900e+02 +9.0176897963e+02 +8.3673990840e+02 2.7116495238e+03 2.2500000000e+03 0.0000e+00 0.0000e+00
      -11  1    4    4    0    0 +2.2575102931e-02 -1.3504573375e-03 -8.6402976808e-02 8.9315139733e-02 5.1100000000e-04 0.0000e+00 -1.0000e+00
  1000022  1    4    4    0    0 +8.8152316676e+02 -9.0180065826e+02 +1.7116525581e+02 2.5849806703e+03 2.2500000000e+03 0.0000e+00 0.0000e+00
<mgrwt>
<rscale>  0 0.52000441E+04</rscale>
<asrwt>0</asrwt>
<pdfrwt beam="1">  1        2 0.48497828E+00 0.52000441E+04</pdfrwt>
<pdfrwt beam="2">  1       -2 0.32991727E+00 0.52000441E+04</pdfrwt>
<totfact> 0.20722992E-02</totfact>
</mgrwt>
</event>
<event>
 8      1 +1.2359593e-08 5.70516300e+03 7.81860800e-03 7.72807300e-02
       -2 -1    0    0    0  501 -0.0000000000e+00 +0.0000000000e+00 +3.3108399355e+03 3.3108399355e+03 2.5500000000e-03 0.0000e+00 -1.0000e+00
        2 -1    0    0  501    0 +0.0000000000e+00 -0.0000000000e+00 -2.4577512200e+03 2.4577512200e+03 2.5500000000e-03 0.0000e+00 1.0000e+00
  1000011  2    1    2    0    0 +9.2676238518e+02 +1.4432956003e+03 +7.9430507177e+02 2.9386838823e+03 2.2501003766e+03 3.8703e+01 0.0000e+00
 -1000011  2    1    2    0    0 -9.2676238518e+02 -1.4432956003e+03 +5.8783643711e+01 2.8299072731e+03 2.2500953200e+03 2.4861e+03 0.0000e+00
       11  1    3    3    0    0 +1.4753271988e-01 +1.0490184495e-01 +3.5195135446e-02 1.8441599403e-01 5.1100000000e-04 0.0000e+00 1.0000e+00
  1000022  1    3    3    0    0 +9.2661485246e+02 +1.4431906984e+03 +7.9426987663e+02 2.9384994664e+03 2.2500000000e+03 0.0000e+00 0.0000e+00
      -11  1    4    4    0    0 -2.3378917921e-02 +5.0905674623e-02 -1.1746878870e-02 5.7238199345e-02 5.1100000000e-04 0.0000e+00 -1.0000e+00
  1000022  1    4    4    0    0 -9.2673900626e+02 -1.4433465059e+03 +5.8795390590e+01 2.8298500349e+03 2.2500000000e+03 0.0000e+00 0.0000e+00
<mgrwt>
<rscale>  0 0.57051629E+04</rscale>
<asrwt>0</asrwt>
<pdfrwt beam="1">  1        2 0.37811558E+00 0.57051629E+04</pdfrwt>
<pdfrwt beam="2">  1       -2 0.50935999E+00 0.57051629E+04</pdfrwt>
<totfact> 0.37079341E-03</totfact>
</mgrwt>
</event>
<event>
 8      1 +1.2359593e-08 4.53262100e+03 7.81860800e-03 7.90495100e-02
        1 -1    0    0  501    0 +0.0000000000e+00 +0.0000000000e+00 +1.3673738046e+03 1.3673738046e+03 5.0400000000e-03 0.0000e+00 1.0000e+00
       -1 -1    0    0    0  501 -0.0000000000e+00 -0.0000000000e+00 -3.7562239021e+03 3.7562239021e+03 5.0400000000e-03 0.0000e+00 -1.0000e+00
  1000011  2    1    2    0    0 -1.5393309844e+02 +1.4615766131e+02 -1.0047931775e+03 2.4733861254e+03 2.2501049164e+03 3.9636e+02 0.0000e+00
 -1000011  2    1    2    0    0 +1.5393309844e+02 -1.4615766131e+02 -1.3840569199e+03 2.6502115813e+03 2.2501000883e+03 6.9111e+02 0.0000e+00
       11  1    3    3    0    0 -4.3741587149e-02 +9.5828247469e-02 -3.9011439359e-03 1.0541280225e-01 5.1100000000e-04 0.0000e+00 1.0000e+00
  1000022  1    3    3    0    0 -1.5388935685e+02 +1.4606183306e+02 -1.0047892764e+03 2.4732807126e+03 2.2500000000e+03 0.0000e+00 0.0000e+00
      -11  1    4    4    0    0 +7.8528681078e-02 -4.4370167710e-02 -1.3541014377e-01 1.6270105466e-01 5.1100000000e-04 0.0000e+00 -1.0000e+00
  1000022  1    4    4    0    0 +1.5385456976e+02 -1.4611329114e+02 -1.3839215098e+03 2.6500488802e+03 2.2500000000e+03 0.0000e+00 0.0000e+00
<mgrwt>
<rscale>  0 0.45326205E+04</rscale>
<asrwt>0</asrwt>
<pdfrwt beam="1">  1        1 0.21036520E+00 0.45326205E+04</pdfrwt>
<pdfrwt beam="2">  1       -1 0.57788060E+00 0.45326205E+04</pdfrwt>
<totfact> 0.33424846E-03</totfact>
</mgrwt>
</event>
<event>
 8      1 +1.2359593e-08 6.15004000e+03 7.81860800e-03 7.67207200e-02
       -1 -1    0    0    0  501 -0.0000000000e+00 +0.0000000000e+00 +2.7849516204e+03 2.7849516205e+03 5.0400000000e-03 0.0000e+00 -1.0000e+00
        1 -1    0    0  501    0 +0.0000000000e+00 -0.0000000000e+00 -3.3953001727e+03 3.3953001727e+03 5.0400000000e-03 0.0000e+00 1.0000e+00
  1000011  2    1    2    0    0 +1.3574936761e+03 -1.5200334599e+03 -7.9697358836e+02 3.1386948903e+03 2.2500995342e+03 1.4850e+03 0.0000e+00
 -1000011  2    1    2    0    0 -1.3574936761e+03 +1.5200334599e+03 +1.8662503607e+02 3.0415569029e+03 2.2500997066e+03 7.0764e+02 0.0000e+00
       11  1    3    3    0    0 -1.7716862083e-02 +4.1457291861e-02 -1.2482439844e-02 4.6783186781e-02 5.1100000000e-04 0.0000e+00 1.0000e+00
  1000022  1    3    3    0    0 +1.3575113930e+03 -1.5200749172e+03 -7.9696110592e+02 3.1386481071e+03 2.2500000000e+03 0.0000e+00 0.0000e+00
      -11  1    4    4    0    0 +4.2602689469e-02 +4.4292616292e-02 +5.1255023640e-02 8.0026014272e-02 5.1100000000e-04 0.0000e+00 -1.0000e+00
  1000022  1    4    4    0    0 -1.3575362788e+03 +1.5199891672e+03 +1.8657378105e+02 3.0414768769e+03 2.2500000000e+03 0.0000e+00 0.0000e+00
<mgrwt>
<rscale>  0 0.61500396E+04</rscale>
<asrwt>0</asrwt>
<pdfrwt beam="1">  1        1 0.52235387E+00 0.61500396E+04</pdfrwt>
<pdfrwt beam="2">  1       -1 0.42845410E+00 0.61500396E+04</pdfrwt>
<totfact> 0.90989108E-04</totfact>
</mgrwt>
</event>
<event>
 8      1 +1.2359593e-08 4.65297200e+03 7.81860800e-03 7.88439000e-02
       -1 -1    0    0    0  501 -0.0000000000e+00 +0.0000000000e+00 +2.1498131170e+03 2.1498131170e+03 5.0400000000e-03 0.0000e+00 -1.0000e+00
        1 -1    0    0  501    0 +0.0000000000e+00 -0.0000000000e+00 -2.5176780843e+03 2.5176780843e+03 5.0400000000e-03 0.0000e+00 1.0000e+00
  1000011  2    1    2    0    0 -1.4884344175e+02 -2.5137554770e+02 -6.9958396522e+02 2.3743857973e+03 2.2500991431e+03 2.7460e+03 0.0000e+00
 -1000011  2    1    2    0    0 +1.4884344175e+02 +2.5137554770e+02 +3.3171899789e+02 2.2931054040e+03 2.2501001899e+03 1.0435e+03 0.0000e+00
       11  1    3    3    0    0 -6.9873350617e-02 -8.7548497264e-02 -4.6701979787e-02 1.2136045525e-01 5.1100000000e-04 0.0000e+00 1.0000e+00
  1000022  1    3    3    0    0 -1.4877356840e+02 -2.5128799920e+02 -6.9953726324e+02 2.3742644368e+03 2.2500000000e+03 0.0000e+00 0.0000e+00
      -11  1    4    4    0    0 -9.0701351041e-02 -8.2468298564e-03 +2.9799655251e-02 9.5828105395e-02 5.1100000000e-04 0.0000e+00 -1.0000e+00
  1000022  1    4    4    0    0 +1.4893414310e+02 +2.5138379453e+02 +3.3168919824e+02 2.2930095759e+03 2.2500000000e+03 0.0000e+00 0.0000e+00
<mgrwt>
<rscale>  0 0.46529721E+04</rscale>
<asrwt>0</asrwt>
<pdfrwt beam="1">  1        1 0.38733509E+00 0.46529721E+04</pdfrwt>
<pdfrwt beam="2">  1       -1 0.33074048E+00 0.46529721E+04</pdfrwt>
<totfact> 0.20348136E-02</totfact>
</mgrwt>
</event>
<event>
 8      1 +1.2359593e-08 4.61198100e+03 7.81860800e-03 7.89132000e-02
        2 -1    0    0  501    0 +0.0000000000e+00 +0.0000000000e+00 +3.0746297548e+03 3.0746297548e+03 2.5500000000e-03 0.0000e+00 1.0000e+00
       -2 -1    0    0    0  501 -0.0000000000e+00 -0.0000000000e+00 -1.7295066436e+03 1.7295066436e+03 2.5500000000e-03 0.0000e+00 -1.0000e+00
  1000011  2    1    2    0    0 -1.2710320156e+02 +3.3828519469e+02 +1.0394455616e+03 2.5047935811e+03 2.2501003782e+03 3.1368e+02 0.0000e+00
 -1000011  2    1    2    0    0 +1.2710320156e+02 -3.3828519469e+02 +3.0567754960e+02 2.2993428172e+03 2.2500992267e+03 1.3792e+03 0.0000e+00
       11  1    3    3    0    0 +2.9445563112e-02 -7.5369357271e-02 +7.2245188816e-02 1.0847676925e-01 5.1100000000e-04 0.0000e+00 1.0000e+00
  1000022  1    3    3    0    0 -1.2713264712e+02 +3.3836056404e+02 +1.0393733164e+03 2.5046851044e+03 2.2500000000e+03 0.0000e+00 0.0000e+00
      -11  1    4    4    0    0 -1.4093025684e-03 +8.3517081638e-03 -8.4175826887e-02 8.4602410648e-02 5.1100000000e-04 0.0000e+00 -1.0000e+00
  1000022  1    4    4    0    0 +1.2710461086e+02 -3.3829354640e+02 +3.0576172543e+02 2.2992582148e+03 2.2500000000e+03 0.0000e+00 0.0000e+00
<mgrwt>
<rscale>  0 0.46119812E+04</rscale>
<asrwt>0</asrwt>
<pdfrwt beam="1">  1        2 0.47301995E+00 0.46119812E+04</pdfrwt>
<pdfrwt beam="2">  1       -2 0.26607795E+00 0.46119812E+04</pdfrwt>
<totfact> 0.60031676E-02</totfact>
</mgrwt>
</event>
<event>
 8      1 +1.2359593e-08 4.83543100e+03 7.81860800e-03 7.85440700e-02
        2 -1    0    0  501    0 +0.0000000000e+00 +0.0000000000e+00 +3.0863630404e+03 3.0863630404e+03 2.5500000000e-03 0.0000e+00 1.0000e+00
       -2 -1    0    0    0  501 -0.0000000000e+00 -0.0000000000e+00 -1.8939276693e+03 1.8939276693e+03 2.5500000000e-03 0.0000e+00 -1.0000e+00
  1000011  2    1    2    0    0 +5.8869290438e+02 -4.8166977946e+02 +1.0612206434e+03 2.6014820105e+03 2.2501009499e+03 6.4464e+02 0.0000e+00
 -1000011  2    1    2    0    0 -5.8869290438e+02 +4.8166977946e+02 +1.3121472778e+02 2.3788086992e+03 2.2500996446e+03 6.5517e+02 0.0000e+00
       11  1    3    3    0    0 +1.2238310072e-01 -2.5333815803e-02 +1.0194529668e-01 1.6128400353e-01 5.1100000000e-04 0.0000e+00 1.0000e+00
  1000022  1    3    3    0    0 +5.8857052128e+02 -4.8164444564e+02 +1.0611186981e+03 2.6013207265e+03 2.2500000000e+03 0.0000e+00 0.0000e+00
      -11  1    4    4    0    0 -4.3486434014e-02 +3.3166331045e-02 -9.1588921702e-02 1.0667645937e-01 5.1100000000e-04 0.0000e+00 -1.0000e+00
  1000022  1    4    4    0    0 -5.8864941795e+02 +4.8163661313e+02 +1.3130631670e+02 2.3787020228e+03 2.2500000000e+03 0.0000e+00 0.0000e+00
<mgrwt>
<rscale>  0 0.48354310E+04</rscale>
<asrwt>0</asrwt>
<pdfrwt beam="1">  1        2 0.47482508E+00 0.48354310E+04</pdfrwt>
<pdfrwt beam="2">  1       -2 0.29137349E+00 0.48354310E+04</pdfrwt>
<totfact> 0.40615119E-02</totfact>
</mgrwt>
</event>
<event>
 8      1 +1.2359593e-08 4.61364600e+03 7.81860800e-03 7.89103700e-02
       -2 -1    0    0    0  501 -0.0000000000e+00 +0.0000000000e+00 +2.6773498565e+03 2.6773498565e+03 2.5500000000e-03 0.0000e+00 -1.0000e+00
        2 -1    0    0  501    0 +0.0000000000e+00 -0.0000000000e+00 -1.9875743425e+03 1.9875743425e+03 2.5500000000e-03 0.0000e+00 1.0000e+00
  1000011  2    1    2    0    0 -1.1691092871e+02 -1.5405882620e+02 -1.3052924716e+02 2.2621656388e+03 2.2501007102e+03 3.7595e+02 0.0000e+00
 -1000011  2    1    2    0    0 +1.1691092871e+02 +1.5405882620e+02 +8.2030476116e+02 2.4027585602e+03 2.2500992223e+03 1.9589e+02 0.0000e+00
       11  1    3    3    0    0 +2.8231876020e-02 -9.7609946870e-02 +2.2454866691e-02 1.0406355034e-01 5.1100000000e-04 0.0000e+00 1.0000e+00
  1000022  1    3    3    0    0 -1.1693916059e+02 -1.5396121625e+02 -1.3055170202e+02 2.2620615753e+03 2.2500000000e+03 0.0000e+00 0.0000e+00
      -11  1    4    4    0    0 -7.8848007106e-02 +2.5968259105e-02 -1.7371765058e-02 8.4813901296e-02 5.1100000000e-04 0.0000e+00 -1.0000e+00
  1000022  1    4    4    0    0 +1.1698977672e+02 +1.5403285794e+02 +8.2032213293e+02 2.4026737463e+03 2.2500000000e+03 0.0000e+00 0.0000e+00
<mgrwt>
<rscale>  0 0.46136458E+04</rscale>
<asrwt>0</asrwt>
<pdfrwt beam="1">  1        2 0.30578067E+00 0.46136458E+04</pdfrwt>
<pdfrwt beam="2">  1       -2 0.41189998E+00 0.46136458E+04</pdfrwt>
<totfact> 0.31617896E-02</totfact>
</mgrwt>
</event>
<event>
 8      1 +1.2359593e-08 4.65854800e+03 7.81860800e-03 7.88345300e-02
       -2 -1    0    0    0  501 -0.0000000000e+00 +0.0000000000e+00 +1.4490354673e+03 1.4490354673e+03 2.5500000000e-03 0.0000e+00 -1.0000e+00
        2 -1    0    0  501    0 +0.0000000000e+00 -0.0000000000e+00 -3.7442270416e+03 3.7442270416e+03 2.5500000000e-03 0.0000e+00 1.0000e+00
  1000011  2    1    2    0    0 -4.9461411944e+02 -3.2526817660e+02 -1.0250031678e+03 2.5424468453e+03 2.2501026539e+03 5.1564e+02 0.0000e+00
 -1000011  2    1    2    0    0 +4.9461411944e+02 +3.2526817660e+02 -1.2701884064e+03 2.6508156636e+03 2.2501116819e+03 1.9255e+02 0.0000e+00
       11  1    3    3    0    0 +6.7211706977e-02 -5.6180928380e-02 -7.4494450441e-02 1.1499301885e-01 5.1100000000e-04 0.0000e+00 1.0000e+00
  1000022  1    3    3    0    0 -4.9468133114e+02 -3.2521199567e+02 -1.0249286734e+03 2.5423318523e+03 2.2500000000e+03 0.0000e+00 0.0000e+00
      -11  1    4    4    0    0 -4.8193639345e-02 +7.8162690565e-02 -1.2557392861e-01 1.5556704502e-01 5.1100000000e-04 0.0000e+00 -1.0000e+00
  1000022  1    4    4    0    0 +4.9466231308e+02 +3.2519001391e+02 -1.2700628325e+03 2.6506600966e+03 2.2500000000e+03 0.0000e+00 0.0000e+00
<mgrwt>
<rscale>  0 0.46585482E+04</rscale>
<asrwt>0</asrwt>
<pdfrwt beam="1">  1        2 0.57603493E+00 0.46585482E+04</pdfrwt>
<pdfrwt beam="2">  1       -2 0.22292853E+00 0.46585482E+04</pdfrwt>
<totfact> 0.38223116E-02</totfact>
</mgrwt>
</event>
<event>
 8      1 +1.2359593e-08 4.86538000e+03 7.81860800e-03 7.84961600e-02
        1 -1    0    0  501    0 +0.0000000000e+00 +0.0000000000e+00 +2.4442294574e+03 2.4442294574e+03 5.0400000000e-03 0.0000e+00 1.0000e+00
       -1 -1    0    0    0  501 -0.0000000000e+00 -0.0000000000e+00 -2.4212049969e+03 2.4212049970e+03 5.0400000000e-03 0.0000e+00 -1.0000e+00
  1000011  2    1    2    0    0 -1.6450765537e+02 +8.5098166326e+02 -3.1064871804e+02 2.4311882384e+03 2.2500980122e+03 4.8377e+03 0.0000e+00
 -1000011  2    1    2    0    0 +1.6450765537e+02 -8.5098166326e+02 +3.3367317844e+02 2.4342462159e+03 2.2501076174e+03 6.2035e+02 0.0000e+00
       11  1    3    3    0    0 -1.0469153472e-01 +3.9979951148e-02 -2.6659580632e-02 1.1519421848e-01 5.1100000000e-04 0.0000e+00 1.0000e+00
  1000022  1    3    3    0    0 -1.6440296384e+02 +8.5094168330e+02 -3.1062205846e+02 2.4310730442e+03 2.2500000000e+03 0.0000e+00 0.0000e+00
      -11  1    4    4    0    0 -7.4162390774e-02 -1.1198956327e-01 +3.1118899598e-02 1.3787809490e-01 5.1100000000e-04 0.0000e+00 -1.0000e+00
  1000022  1    4    4    0    0 +1.6458181776e+02 -8.5086967369e+02 +3.3364205954e+02 2.4341083378e+03 2.2500000000e+03 0.0000e+00 0.0000e+00
<mgrwt>
<rscale>  0 0.48653800E+04</rscale>
<asrwt>0</asrwt>
<pdfrwt beam="1">  1        1 0.37603530E+00 0.48653800E+04</pdfrwt>
<pdfrwt beam="2">  1       -1 0.37249308E+00 0.48653800E+04</pdfrwt>
<totfact> 0.11880635E-02</totfact>
</mgrwt>
</event>
<event>
 8      1 +1.2359593e-08 4.56175400e+03 7.81860800e-03 7.89991400e-02
        2 -1    0    0  501    0 +0.0000000000e+00 +0.0000000000e+00 +2.4808825552e+03 2.4808825552e+03 2.5500000000e-03 0.0000e+00 1.0000e+00
       -2 -1    0    0    0  501 -0.0000000000e+00 -0.0000000000e+00 -2.0969958106e+03 2.0969958106e+03 2.5500000000e-03 0.0000e+00 -1.0000e+00
  1000011  2    1    2    0    0 +1.4334879418e+02 +7.6521921735e+01 +5.2935574891e+02 2.3172342275e+03 2.2501005478e+03 2.1296e+02 0.0000e+00
 -1000011  2    1    2    0    0 -1.4334879418e+02 -7.6521921735e+01 -1.4546900430e+02 2.2606441382e+03 2.2500991549e+03 2.6170e+02 0.0000e+00
       11  1    3    3    0    0 -3.1546776282e-02 +9.5771896867e-02 +3.5989855511e-02 1.0706533372e-01 5.1100000000e-04 0.0000e+00 1.0000e+00
  1000022  1    3    3    0    0 +1.4338034096e+02 +7.6426149839e+01 +5.2931975906e+02 2.3171271622e+03 2.2500000000e+03 0.0000e+00 0.0000e+00
      -11  1    4    4    0    0 +3.0030474076e-03 -9.8817006383e-02 -3.1959133649e-02 1.0390123243e-01 5.1100000000e-04 0.0000e+00 -1.0000e+00
  1000022  1    4    4    0    0 -1.4335179723e+02 -7.6423104729e+01 -1.4543704516e+02 2.2605402369e+03 2.2500000000e+03 0.0000e+00 0.0000e+00
<mgrwt>
<rscale>  0 0.45617542E+04</rscale>
<asrwt>0</asrwt>
<pdfrwt beam="1">  1        2 0.38167424E+00 0.45617542E+04</pdfrwt>
<pdfrwt beam="2">  1       -2 0.32261474E+00 0.45617542E+04</pdfrwt>
<totfact> 0.62109852E-02</totfact>
</mgrwt>
</event>
<event>
 8      1 +1.2359593e-08 5.95480300e+03 7.81860800e-03 7.69603100e-02
       -2 -1    0    0    0  501 -0.0000000000e+00 +0.0000000000e+00 +4.0314868412e+03 4.0314868412e+03 2.5500000000e-03 0.0000e+00 -1.0000e+00
        2 -1    0    0  501    0 +0.0000000000e+00 -0.0000000000e+00 -2.1989202920e+03 2.1989202920e+03 2.5500000000e-03 0.0000e+00 1.0000e+00
  1000011  2    1    2    0    0 +4.1635800394e+02 +1.9042571372e+03 +9.6756973127e+02 3.1302917023e+03 2.2501079363e+03 1.2736e+03 0.0000e+00
 -1000011  2    1    2    0    0 -4.1635800394e+02 -1.9042571372e+03 +8.6499681794e+02 3.1001154309e+03 2.2500993218e+03 1.0960e+03 0.0000e+00
       11  1    3    3    0    0 +4.1403351629e-03 +1.8621894908e-01 -1.4776590897e-02 1.8685087022e-01 5.1100000000e-04 0.0000e+00 1.0000e+00
  1000022  1    3    3    0    0 +4.1635386360e+02 +1.9040709182e+03 +9.6758450786e+02 3.1301048515e+03 2.2500000000e+03 0.0000e+00 0.0000e+00
      -11  1    4    4    0    0 -5.7480759430e-02 -5.3577455478e-02 +1.2490705199e-01 1.4756901298e-01 5.1100000000e-04 0.0000e+00 -1.0000e+00
  1000022  1    4    4    0    0 -4.1630052318e+02 -1.9042035597e+03 +8.6487191089e+02 3.0999678619e+03 2.2500000000e+03 0.0000e+00 0.0000e+00
<mgrwt>
<rscale>  0 0.59548025E+04</rscale>
<asrwt>0</asrwt>
<pdfrwt beam="1">  1        2 0.33829543E+00 0.59548025E+04</pdfrwt>
<pdfrwt beam="2">  1       -2 0.62022874E+00 0.59548025E+04</pdfrwt>
<totfact> 0.15190621E-03</totfact>
</mgrwt>
</event>
<event>
 8      1 +1.2359593e-08 5.34161500e+03 7.81860800e-03 7.77786700e-02
       -2 -1    0    0    0  501 -0.0000000000e+00 +0.0000000000e+00 +1.8637272276e+03 1.8637272276e+03 2.5500000000e-03 0.0000e+00 -1.0000e+00
        2 -1    0    0  501    0 +0.0000000000e+00 -0.0000000000e+00 -3.8273908895e+03 3.8273908895e+03 2.5500000000e-03 0.0000e+00 1.0000e+00
  1000011  2    1    2    0    0 -4.1319888838e+02 +3.8551484457e+02 +4.2796384472e+02 2.3591207376e+03 2.2500983501e+03 3.5111e+03 0.0000e+00
 -1000011  2    1    2    0    0 +4.1319888838e+02 -3.8551484457e+02 -2.3916275066e+03 3.3319973795e+03 2.2501043065e+03 1.9472e+02 0.0000e+00
       11  1    3    3    0    0 -9.7714666674e-02 +7.5196615410e-02 +4.5696211326e-02 1.3149559513e-01 5.1100000000e-04 0.0000e+00 1.0000e+00
  1000022  1    3    3    0    0 -4.1310117372e+02 +3.8543964796e+02 +4.2791814851e+02 2.3589892420e+03 2.2500000000e+03 0.0000e+00 0.0000e+00
      -11  1    4    4    0    0 +1.0711914111e-01 +2.9552590428e-02 -7.4557659218e-02 1.3381693296e-01 5.1100000000e-04 0.0000e+00 -1.0000e+00
  1000022  1    4    4    0    0 +4.1309176924e+02 -3.8554439717e+02 -2.3915529490e+03 3.3318635626e+03 2.2500000000e+03 0.0000e+00 0.0000e+00
<mgrwt>
<rscale>  0 0.53416150E+04</rscale>
<asrwt>0</asrwt>
<pdfrwt beam="1">  1        2 0.58882937E+00 0.53416150E+04</pdfrwt>
<pdfrwt beam="2">  1       -2 0.28672727E+00 0.53416150E+04</pdfrwt>
<totfact> 0.12658513E-02</totfact>
</mgrwt>
</event>
<event>
 8      1 +1.2359593e-08 5.06971000e+03 7.81860800e-03 7.81784300e-02
        2 -1    0    0  501    0 +0.0000000000e+00 +0.0000000000e+00 +2.2765940379e+03 2.2765940379e+03 2.5500000000e-03 0.0000e+00 1.0000e+00
       -2 -1    0    0    0  501 -0.0000000000e+00 -0.0000000000e+00 -2.8224141054e+03 2.8224141054e+03 2.5500000000e-03 0.0000e+00 -1.0000e+00
  1000011  2    1    2    0    0 +7.8195458298e+02 -1.9161457546e+02 +5.7718418253e+02 2.4585034450e+03 2.2500952187e+03 1.7171e+03 0.0000e+00
 -1000011  2    1    2    0    0 -7.8195458298e+02 +1.9161457546e+02 -1.1230042500e+03 2.6405046983e+03 2.2501016423e+03 4.8336e+01 0.0000e+00
       11  1    3    3    0    0 +1.1033751107e-02 +6.9386318989e-02 +7.5172307993e-02 1.0289480921e-01 5.1100000000e-04 0.0000e+00 1.0000e+00
  1000022  1    3    3    0    0 +7.8194354923e+02 -1.9168396177e+02 +5.7710901022e+02 2.4584005502e+03 2.2500000000e+03 0.0000e+00 0.0000e+00
      -11  1    4    4    0    0 -2.1677454457e-02 -7.5644144574e-02 -1.0760193624e-01 1.3330561137e-01 5.1100000000e-04 0.0000e+00 -1.0000e+00
  1000022  1    4    4    0    0 -7.8193290553e+02 +1.9169021960e+02 -1.1228966481e+03 2.6403713927e+03 2.2500000000e+03 0.0000e+00 0.0000e+00
<mgrwt>
<rscale>  0 0.50697105E+04</rscale>
<asrwt>0</asrwt>
<pdfrwt beam="1">  1        2 0.35024524E+00 0.50697105E+04</pdfrwt>
<pdfrwt beam="2">  1       -2 0.43421756E+00 0.50697105E+04</pdfrwt>
<totfact> 0.14972360E-02</totfact>
</mgrwt>
</event>
<event>
 8      1 +1.2359593e-08 4.91367300e+03 7.81860800e-03 7.84196400e-02
        2 -1    0    0  501    0 +0.0000000000e+00 +0.0000000000e+00 +2.4707574306e+03 2.4707574306e+03 2.5500000000e-03 0.0000e+00 1.0000e+00
       -2 -1    0    0    0  501 -0.0000000000e+00 -0.0000000000e+00 -2.4429943542e+03 2.4429943542e+03 2.5500000000e-03 0.0000e+00 -1.0000e+00
  1000011  2    1    2    0    0 +2.5272262330e+02 +6.9383741549e+02 +6.6797128675e+02 2.4605701114e+03 2.2500978978e+03 1.1511e+03 0.0000e+00
 -1000011  2    1    2    0    0 -2.5272262330e+02 -6.9383741549e+02 -6.4020821036e+02 2.4531816734e+03 2.2501010392e+03 1.0871e+02 0.0000e+00
       11  1    3    3    0    0 +1.1567721090e-03 -6.8436205044e-02 +4.7240943480e-02 8.3167419695e-02 5.1100000000e-04 0.0000e+00 1.0000e+00
  1000022  1    3    3    0    0 +2.5272146653e+02 +6.9390585169e+02 +6.6792404581e+02 2.4604869440e+03 2.2500000000e+03 0.0000e+00 0.0000e+00
      -11  1    4    4    0    0 -9.4087542333e-02 -6.3108515257e-02 -8.7215413589e-02 1.4297531120e-01 5.1100000000e-04 0.0000e+00 -1.0000e+00
  1000022  1    4    4    0    0 -2.5262853576e+02 -6.9377430697e+02 -6.4012099495e+02 2.4530386981e+03 2.2500000000e+03 0.0000e+00 0.0000e+00
<mgrwt>
<rscale>  0 0.49136734E+04</rscale>
<asrwt>0</asrwt>
<pdfrwt beam="1">  1        2 0.38011653E+00 0.49136734E+04</pdfrwt>
<pdfrwt beam="2">  1       -2 0.37584529E+00 0.49136734E+04</pdfrwt>
<totfact> 0.28261549E-02</totfact>
</mgrwt>
</event>
<event>
 8      1 +1.2359593e-08 4.98216100e+03 7.81860800e-03 7.83126500e-02
       -2 -1    0    0    0  501 -0.0000000000e+00 +0.0000000000e+00 +3.1706865960e+03 3.1706865960e+03 2.5500000000e-03 0.0000e+00 -1.0000e+00
        2 -1    0    0  501    0 +0.0000000000e+00 -0.0000000000e+00 -1.9571416518e+03 1.9571416518e+03 2.5500000000e-03 0.0000e+00 1.0000e+00
  1000011  2    1    2    0    0 +5.3703302794e+02 -8.2647161165e+02 +1.8107366518e+02 2.4631685984e+03 2.2501004586e+03 1.9426e+03 0.0000e+00
 -1000011  2    1    2    0    0 -5.3703302794e+02 +8.2647161165e+02 +1.0324712790e+03 2.6646596494e+03 2.2501009549e+03 2.0370e+03 0.0000e+00
       11  1    3    3    0    0 +9.6702020996e-02 -1.1794464956e-01 +1.3925889418e-03 1.5252678838e-01 5.1100000000e-04 0.0000e+00 1.0000e+00
  1000022  1    3    3    0    0 +5.3693632592e+02 -8.2635366700e+02 +1.8107227259e+02 2.4630160716e+03 2.2500000000e+03 0.0000e+00 0.0000e+00
      -11  1    4    4    0    0 -1.0660324227e-01 +1.0893082852e-01 +6.5874071064e-02 1.6604165286e-01 5.1100000000e-04 0.0000e+00 -1.0000e+00
  1000022  1    4    4    0    0 -5.3692642470e+02 +8.2636268082e+02 +1.0324054049e+03 2.6644936078e+03 2.2500000000e+03 0.0000e+00 0.0000e+00
<mgrwt>
<rscale>  0 0.49821613E+04</rscale>
<asrwt>0</asrwt>
<pdfrwt beam="1">  1        2 0.30109872E+00 0.49821613E+04</pdfrwt>
<pdfrwt beam="2">  1       -2 0.48779794E+00 0.49821613E+04</pdfrwt>
<totfact> 0.10185385E-02</totfact>
</mgrwt>
</event>
<event>
 8      1 +1.2359593e-08 5.68942600e+03 7.81860800e-03 7.73014900e-02
       -2 -1    0    0    0  501 -0.0000000000e+00 +0.0000000000e+00 +3.8993078841e+03 3.8993078841e+03 2.5500000000e-03 0.0000e+00 -1.0000e+00
        2 -1    0    0  501    0 +0.0000000000e+00 -0.0000000000e+00 -2.0753405398e+03 2.0753405398e+03 2.5500000000e-03 0.0000e+00 1.0000e+00
  1000011  2    1    2    0    0 -7.2402872346e+02 -9.8620140484e+02 +2.2120427957e+03 3.3842115465e+03 2.2500985885e+03 8.4271e+02 0.0000e+00
 -1000011  2    1    2    0    0 +7.2402872346e+02 +9.8620140484e+02 -3.8807545141e+02 2.5904368773e+03 2.2500999658e+03 4.2938e+02 0.0000e+00
       11  1    3    3    0    0 +6.2438055490e-02 -6.3578449034e-02 +1.1785072929e-01 1.4774906087e-01 5.1100000000e-04 0.0000e+00 1.0000e+00
  1000022  1    3    3    0    0 -7.2409116151e+02 -9.8613782639e+02 +2.2119249450e+03 3.3840637974e+03 2.2500000000e+03 0.0000e+00 0.0000e+00
      -11  1    4    4    0    0 +1.4876292590e-02 +7.0911185633e-02 +7.7816651988e-02 1.0632681927e-01 5.1100000000e-04 0.0000e+00 -1.0000e+00
  1000022  1    4    4    0    0 +7.2401384717e+02 +9.8613049366e+02 -3.8815326806e+02 2.5903305505e+03 2.2500000000e+03 0.0000e+00 0.0000e+00
<mgrwt>
<rscale>  0 0.56894259E+04</rscale>
<asrwt>0</asrwt>
<pdfrwt beam="1">  1        2 0.31928316E+00 0.56894259E+04</pdfrwt>
<pdfrwt beam="2">  1       -2 0.59989351E+00 0.56894259E+04</pdfrwt>
<totfact> 0.21633967E-03</totfact>
</mgrwt>
</event>
<event>
 8      1 +1.2359593e-08 4.95918200e+03 7.81860800e-03 7.83483500e-02
       -2 -1    0    0    0  501 -0.0000000000e+00 +0.0000000000e+00 +1.9159715447e+03 1.9159715447e+03 2.5500000000e-03 0.0000e+00 -1.0000e+00
        2 -1    0    0  501    0 +0.0000000000e+00 -0.0000000000e+00 -3.2090102434e+03 3.2090102434e+03 2.5500000000e-03 0.0000e+00 1.0000e+00
  1000011  2    1    2    0    0 +1.8891324794e+02 +4.9937053631e+02 -1.5710600161e+03 2.7957546500e+03 2.2501011846e+03 5.9122e+02 0.0000e+00
 -1000011  2    1    2    0    0 -1.8891324794e+02 -4.9937053631e+02 +2.7802131740e+02 2.3292271381e+03 2.2500986779e+03 5.2831e+02 0.0000e+00
       11  1    3    3    0    0 +8.6625485072e-02 +8.8885914338e-02 -6.9928260320e-02 1.4246018005e-01 5.1100000000e-04 0.0000e+00 1.0000e+00
  1000022  1    3    3    0    0 +1.8882662246e+02 +4.9928165040e+02 -1.5709900879e+03 2.7956121898e+03 2.2500000000e+03 0.0000e+00 0.0000e+00
      -11  1    4    4    0    0 -4.5450741362e-02 -7.9525819910e-02 +8.7199431913e-02 1.2646789260e-01 5.1100000000e-04 0.0000e+00 -1.0000e+00
  1000022  1    4    4    0    0 -1.8886779720e+02 -4.9929101049e+02 +2.7793411797e+02 2.3291006702e+03 2.2500000000e+03 0.0000e+00 0.0000e+00
<mgrwt>
<rscale>  0 0.49591823E+04</rscale>
<asrwt>0</asrwt>
<pdfrwt beam="1">  1        2 0.49369388E+00 0.49591823E+04</pdfrwt>
<pdfrwt beam="2">  1       -2 0.29476485E+00 0.49591823E+04</pdfrwt>
<totfact> 0.31939462E-02</totfact>
</mgrwt>
</event>
<event>
 8      1 +1.2359593e-08 5.98290900e+03 7.81860800e-03 7.69252500e-02
       -2 -1    0    0    0  501 -0.0000000000e+00 +0.0000000000e+00 +2.6497410413e+03 2.6497410413e+03 2.5500000000e-03 0.0000e+00 1.0000e+00
        2 -1    0    0  501    0 +0.0000000000e+00 -0.0000000000e+00 -3.3772355234e+03 3.3772355234e+03 2.5500000000e-03 0.0000e+00 -1.0000e+00
  1000011  2    1    2    0    0 -1.0566239376e+03 +2.2430493014e+02 -2.0248597746e+03 3.2139933357e+03 2.2500953775e+03 1.2040e+02 0.0000e+00
 -1000011  2    1    2    0    0 +1.0566239376e+03 -2.2430493014e+02 +1.2973652926e+03 2.8129832290e+03 2.2501002416e+03 7.2087e+02 0.0000e+00
       11  1    3    3    0    0 +5.6209477468e-02 +2.9369668768e-02 -3.5316084844e-02 7.2591799086e-02 5.1100000000e-04 0.0000e+00 1.0000e+00
  1000022  1    3    3    0    0 -1.0566801470e+03 +2.2427556047e+02 -2.0248244586e+03 3.2139207439e+03 2.2500000000e+03 0.0000e+00 0.0000e+00
      -11  1    4    4    0    0 +1.0397817727e-01 -9.6571435247e-02 +9.4810043898e-02 1.7066548728e-01 5.1100000000e-04 0.0000e+00 -1.0000e+00
  1000022  1    4    4    0    0 +1.0565199594e+03 -2.2420835870e+02 +1.2972704825e+03 2.8128125635e+03 2.2500000000e+03 0.0000e+00 0.0000e+00
<mgrwt>
<rscale>  0 0.59829088E+04</rscale>
<asrwt>0</asrwt>
<pdfrwt beam="1">  1        2 0.51957470E+00 0.59829088E+04</pdfrwt>
<pdfrwt beam="2">  1       -2 0.40765247E+00 0.59829088E+04</pdfrwt>
<totfact> 0.44039481E-03</totfact>
</mgrwt>
</event>
<event>
 8      1 +1.2359593e-08 4.77536700e+03 7.81860800e-03 7.86412500e-02
       -2 -1    0    0    0  501 -0.0000000000e+00 +0.0000000000e+00 +1.7373315010e+03 1.7373315010e+03 2.5500000000e-03 0.0000e+00 -1.0000e+00
        2 -1    0    0  501    0 +0.0000000000e+00 -0.0000000000e+00 -3.2814877600e+03 3.2814877600e+03 2.5500000000e-03 0.0000e+00 1.0000e+00
  1000011  2    1    2    0    0 -5.4055876222e+02 +5.7455579104e+02 -6.4011211297e+02 2.4688063769e+03 2.2500985039e+03 1.1689e+03 0.0000e+00
 -1000011  2    1    2    0    0 +5.4055876222e+02 -5.7455579104e+02 -9.0404414606e+02 2.5500128841e+03 2.2501003886e+03 4.1154e+02 0.0000e+00
       11  1    3    3    0    0 +1.4056255018e-02 -4.9679340783e-02 -8.1139094353e-02 9.6173950389e-02 5.1100000000e-04 0.0000e+00 1.0000e+00
  1000022  1    3    3    0    0 -5.4057281848e+02 +5.7460547038e+02 -6.4003097387e+02 2.4687102030e+03 2.2500000000e+03 0.0000e+00 0.0000e+00
      -11  1    4    4    0    0 +3.3000573699e-02 -1.0000861217e-01 +2.6695064034e-02 1.0864459206e-01 5.1100000000e-04 0.0000e+00 -1.0000e+00
  1000022  1    4    4    0    0 +5.4052576165e+02 -5.7445578242e+02 -9.0407084113e+02 2.5499042395e+03 2.2500000000e+03 0.0000e+00 0.0000e+00
<mgrwt>
<rscale>  0 0.47753668E+04</rscale>
<asrwt>0</asrwt>
<pdfrwt beam="1">  1        2 0.50484427E+00 0.47753668E+04</pdfrwt>
<pdfrwt beam="2">  1       -2 0.26728177E+00 0.47753668E+04</pdfrwt>
<totfact> 0.42715034E-02</totfact>
</mgrwt>
</event>
<event>
 8      1 +1.2359593e-08 4.84858400e+03 7.81860800e-03 7.85229900e-02
        2 -1    0    0  501    0 +0.0000000000e+00 +0.0000000000e+00 +2.5864480901e+03 2.5864480901e+03 2.5500000000e-03 0.0000e+00 1.0000e+00
       -2 -1    0    0    0  501 -0.0000000000e+00 -0.0000000000e+00 -2.2723023317e+03 2.2723023317e+03 2.5500000000e-03 0.0000e+00 -1.0000e+00
  1000011  2    1    2    0    0 -5.5630229109e+02 +1.6498893077e+02 -5.3542890563e+02 2.3845995994e+03 2.2500972312e+03 2.4526e+02 0.0000e+00
 -1000011  2    1    2    0    0 +5.5630229109e+02 -1.6498893077e+02 +8.4957466403e+02 2.4741508224e+03 2.2501003524e+03 5.5586e+02 0.0000e+00
       11  1    3    3    0    0 +1.4589966635e-02 +3.6130670725e-02 +6.5424788282e-02 7.6150878285e-02 5.1100000000e-04 0.0000e+00 1.0000e+00
  1000022  1    3    3    0    0 -5.5631688105e+02 +1.6495280010e+02 -5.3549433042e+02 2.3845234485e+03 2.2500000000e+03 0.0000e+00 0.0000e+00
      -11  1    4    4    0    0 +1.0682173064e-01 -5.8903642695e-02 +9.0696272011e-03 1.2232350637e-01 5.1100000000e-04 0.0000e+00 -1.0000e+00
  1000022  1    4    4    0    0 +5.5619546935e+02 -1.6493002712e+02 +8.4956559440e+02 2.4740284989e+03 2.2500000000e+03 0.0000e+00 0.0000e+00
<mgrwt>
<rscale>  0 0.48485841E+04</rscale>
<asrwt>0</asrwt>
<pdfrwt beam="1">  1        2 0.39791509E+00 0.48485841E+04</pdfrwt>
<pdfrwt beam="2">  1       -2 0.34958498E+00 0.48485841E+04</pdfrwt>
<totfact> 0.35747466E-02</totfact>
</mgrwt>
</event>
<event>
 8      1 +1.2359593e-08 4.69963600e+03 7.81860800e-03 7.87658900e-02
       -2 -1    0    0    0  501 -0.0000000000e+00 +0.0000000000e+00 +3.4488068345e+03 3.4488068345e+03 2.5500000000e-03 0.0000e+00 -1.0000e+00
        2 -1    0    0  501    0 +0.0000000000e+00 -0.0000000000e+00 -1.6010305999e+03 1.6010305999e+03 2.5500000000e-03 0.0000e+00 1.0000e+00
  1000011  2    1    2    0    0 -2.3190938771e+02 +1.7627305949e+02 +1.5808815340e+03 2.7653170792e+03 2.2500973241e+03 3.3749e+01 0.0000e+00
 -1000011  2    1    2    0    0 +2.3190938771e+02 -1.7627305949e+02 +2.6689470053e+02 2.2845203553e+03 2.2500991793e+03 1.1813e+03 0.0000e+00
       11  1    3    3    0    0 +8.1599444856e-02 +3.7891594577e-02 +8.1081424328e-02 1.2111441026e-01 5.1100000000e-04 0.0000e+00 1.0000e+00
  1000022  1    3    3    0    0 -2.3199098716e+02 +1.7623516790e+02 +1.5808004526e+03 2.7651959647e+03 2.2500000000e+03 0.0000e+00 0.0000e+00
      -11  1    4    4    0    0 +3.9818758897e-03 +9.0698707308e-02 +2.3901846648e-02 9.3881145832e-02 5.1100000000e-04 0.0000e+00 -1.0000e+00
  1000022  1    4    4    0    0 +2.3190540584e+02 -1.7636375820e+02 +2.6687079868e+02 2.2844264741e+03 2.2500000000e+03 0.0000e+00 0.0000e+00
<mgrwt>
<rscale>  0 0.46996363E+04</rscale>
<asrwt>0</asrwt>
<pdfrwt beam="1">  1        2 0.24631240E+00 0.46996363E+04</pdfrwt>
<pdfrwt beam="2">  1       -2 0.53058567E+00 0.46996363E+04</pdfrwt>
<totfact> 0.90811754E-03</totfact>
</mgrwt>
</event>
<event>
 8      1 +1.2359593e-08 5.93373900e+03 7.81860800e-03 7.69867200e-02
       -2 -1    0    0    0  501 -0.0000000000e+00 +0.0000000000e+00 +2.7194307286e+03 2.7194307286e+03 2.5500000000e-03 0.0000e+00 -1.0000e+00
        2 -1    0    0  501    0 +0.0000000000e+00 -0.0000000000e+00 -3.2368221991e+03 3.2368221991e+03 2.5500000000e-03 0.0000e+00 1.0000e+00
  1000011  2    1    2    0    0 +2.6834793944e+02 +6.2593087672e+02 -2.0754063301e+03 3.1359397819e+03 2.2501126197e+03 1.1159e+03 0.0000e+00
 -1000011  2    1    2    0    0 -2.6834793944e+02 -6.2593087672e+02 +1.5580148596e+03 2.8203131459e+03 2.2501012997e+03 5.3677e+02 0.0000e+00
       11  1    3    3    0    0 +2.2398164918e-02 +1.4077558137e-01 -1.8272764738e-01 2.3175222990e-01 5.1100000000e-04 0.0000e+00 1.0000e+00
  1000022  1    3    3    0    0 +2.6832554128e+02 +6.2579010114e+02 -2.0752236025e+03 3.1357080296e+03 2.2500000000e+03 0.0000e+00 0.0000e+00
      -11  1    4    4    0    0 -6.1141390011e-02 -2.2694310193e-02 +1.7911424533e-01 1.9061866260e-01 5.1100000000e-04 0.0000e+00 -1.0000e+00
  1000022  1    4    4    0    0 -2.6828679805e+02 -6.2590818241e+02 +1.5578357454e+03 2.8201225272e+03 2.2500000000e+03 0.0000e+00 0.0000e+00
<mgrwt>
<rscale>  0 0.59337387E+04</rscale>
<asrwt>0</asrwt>
<pdfrwt beam="1">  1        2 0.49797264E+00 0.59337387E+04</pdfrwt>
<pdfrwt beam="2">  1       -2 0.41837396E+00 0.59337387E+04</pdfrwt>
<totfact> 0.46693114E-03</totfact>
</mgrwt>
</event>
<event>
 8      1 +1.2359593e-08 5.13979500e+03 7.81860800e-03 7.80729700e-02
        1 -1    0    0  501    0 +0.0000000000e+00 +0.0000000000e+00 +2.9829263869e+03 2.9829263869e+03 5.0400000000e-03 0.0000e+00 1.0000e+00
       -1 -1    0    0    0  501 -0.0000000000e+00 -0.0000000000e+00 -2.2140581887e+03 2.2140581888e+03 5.0400000000e-03 0.0000e+00 -1.0000e+00
  1000011  2    1    2    0    0 +1.1148583424e+03 -1.9533899852e+02 +9.0038732446e+02 2.6748256667e+03 2.2500952346e+03 3.2818e+02 0.0000e+00
 -1000011  2    1    2    0    0 -1.1148583424e+03 +1.9533899852e+02 -1.3151912634e+02 2.5221589090e+03 2.2500937388e+03 4.2045e+02 0.0000e+00
       11  1    3    3    0    0 +4.0011363219e-02 +7.2108702555e-02 -1.9879954986e-02 8.4829519450e-02 5.1100000000e-04 0.0000e+00 1.0000e+00
  1000022  1    3    3    0    0 +1.1148183311e+03 -1.9541110722e+02 +9.0040720442e+02 2.6747408371e+03 2.2500000000e+03 0.0000e+00 0.0000e+00
      -11  1    4    4    0    0 -5.6895001764e-02 +7.9464964595e-02 -6.6859771868e-02 1.1841541972e-01 5.1100000000e-04 0.0000e+00 -1.0000e+00
  1000022  1    4    4    0    0 -1.1148014474e+03 +1.9525953355e+02 -1.3145226657e+02 2.5220404935e+03 2.2500000000e+03 0.0000e+00 0.0000e+00
<mgrwt>
<rscale>  0 0.51397948E+04</rscale>
<asrwt>0</asrwt>
<pdfrwt beam="1">  1        1 0.45891175E+00 0.51397948E+04</pdfrwt>
<pdfrwt beam="2">  1       -1 0.34062434E+00 0.51397948E+04</pdfrwt>
<totfact> 0.78721458E-03</totfact>
</mgrwt>
</event>
<event>
 8      1 +1.2359593e-08 4.65167400e+03 7.81860800e-03 7.88460800e-02
       -2 -1    0    0    0  501 -0.0000000000e+00 +0.0000000000e+00 +1.1774768880e+03 1.1774768880e+03 2.5500000000e-03 0.0000e+00 -1.0000e+00
        2 -1    0    0  501    0 +0.0000000000e+00 -0.0000000000e+00 -4.5941598747e+03 4.5941598747e+03 2.5500000000e-03 0.0000e+00 1.0000e+00
  1000011  2    1    2    0    0 +5.8063894028e+02 -8.9985755113e+01 -1.7541152025e+03 2.9129083198e+03 2.2500834920e+03 6.7570e+01 0.0000e+00
 -1000011  2    1    2    0    0 -5.8063894028e+02 +8.9985755113e+01 -1.6625677842e+03 2.8587284428e+03 2.2501016994e+03 1.1847e+03 0.0000e+00
       11  1    3    3    0    0 -1.7467296477e-04 +5.1942251887e-03 -1.6141427289e-01 1.6149872699e-01 5.1100000000e-04 0.0000e+00 1.0000e+00
  1000022  1    3    3    0    0 +5.8063911495e+02 -8.9990949338e+01 -1.7539537882e+03 2.9127468211e+03 2.2500000000e+03 0.0000e+00 0.0000e+00
      -11  1    4    4    0    0 +5.8356126688e-02 +5.4657142909e-02 -2.2705159220e-02 8.3118143158e-02 5.1100000000e-04 0.0000e+00 -1.0000e+00
  1000022  1    4    4    0    0 -5.8069729640e+02 +8.9931097970e+01 -1.6625450791e+03 2.8586453247e+03 2.2500000000e+03 0.0000e+00 0.0000e+00
<mgrwt>
<rscale>  0 0.46516737E+04</rscale>
<asrwt>0</asrwt>
<pdfrwt beam="1">  1        2 0.70679382E+00 0.46516737E+04</pdfrwt>
<pdfrwt beam="2">  1       -2 0.18115029E+00 0.46516737E+04</pdfrwt>
<totfact> 0.13070237E-02</totfact>
</mgrwt>
</event>
<event>
 8      1 +1.2359593e-08 5.05676200e+03 7.81860800e-03 7.81981000e-02
       -3 -1    0    0    0  501 -0.0000000000e+00 +0.0000000000e+00 +2.0834444517e+03 2.0834444542e+03 1.0100000000e-01 0.0000e+00 -1.0000e+00
        3 -1    0    0  501    0 +0.0000000000e+00 -0.0000000000e+00 -3.0683369230e+03 3.0683369247e+03 1.0100000000e-01 0.0000e+00 1.0000e+00
  1000011  2    1    2    0    0 +8.6222270060e+02 -7.6461260849e+02 -5.3444472375e+02 2.5839191205e+03 2.2500992049e+03 4.4358e+02 0.0000e+00
 -1000011  2    1    2    0    0 -8.6222270060e+02 +7.6461260849e+02 -4.5044774757e+02 2.5678622584e+03 2.2501006596e+03 8.8172e+01 0.0000e+00
       11  1    3    3    0    0 +1.1771591456e-01 -1.4119841916e-02 -8.9012302286e-02 1.4825605287e-01 5.1100000000e-04 0.0000e+00 1.0000e+00
  1000022  1    3    3    0    0 +8.6210498468e+02 -7.6459848865e+02 -5.3435571145e+02 2.5837708644e+03 2.2500000000e+03 0.0000e+00 0.0000e+00
      -11  1    4    4    0    0 -1.1645314868e-01 +8.8248638080e-02 +2.7712781205e-02 1.4871925573e-01 5.1100000000e-04 0.0000e+00 -1.0000e+00
  1000022  1    4    4    0    0 -8.6210624745e+02 +7.6452435985e+02 -4.5047546036e+02 2.5677135391e+03 2.2500000000e+03 0.0000e+00 0.0000e+00
<mgrwt>
<rscale>  0 0.50567616E+04</rscale>
<asrwt>0</asrwt>
<pdfrwt beam="1">  1        3 0.47205183E+00 0.50567616E+04</pdfrwt>
<pdfrwt beam="2">  1       -3 0.32052992E+00 0.50567616E+04</pdfrwt>
<totfact> 0.25592062E-04</totfact>
</mgrwt>
</event>
<event>
 8      1 +1.2359593e-08 5.94493900e+03 7.81860800e-03 7.69726600e-02
        1 -1    0    0  501    0 +0.0000000000e+00 +0.0000000000e+00 +3.9297065855e+03 3.9297065855e+03 5.0400000000e-03 0.0000e+00 -1.0000e+00
       -1 -1    0    0    0  501 -0.0000000000e+00 -0.0000000000e+00 -2.2484053967e+03 2.2484053967e+03 5.0400000000e-03 0.0000e+00 1.0000e+00
  1000011  2    1    2    0    0 -1.6679011828e+03 +7.2660524611e+02 +1.3370202859e+02 2.8966688645e+03 2.2501032729e+03 9.8878e+02 0.0000e+00
 -1000011  2    1    2    0    0 +1.6679011828e+03 -7.2660524611e+02 +1.5475991602e+03 3.2814431177e+03 2.2501013832e+03 5.6857e+02 0.0000e+00
       11  1    3    3    0    0 +2.7774242779e-02 +7.7677368440e-02 +1.8625407740e-02 8.4571559726e-02 5.1100000000e-04 0.0000e+00 1.0000e+00
  1000022  1    3    3    0    0 -1.6679289570e+03 +7.2652756874e+02 +1.3368340319e+02 2.8965842929e+03 2.2500000000e+03 0.0000e+00 0.0000e+00
      -11  1    4    4    0    0 +2.5039807072e-02 +2.1394679385e-03 +1.5082111893e-01 1.5290140558e-01 5.1100000000e-04 0.0000e+00 -1.0000e+00
  1000022  1    4    4    0    0 +1.6678761430e+03 -7.2660738558e+02 +1.5474483391e+03 3.2812902163e+03 2.2500000000e+03 0.0000e+00 0.0000e+00
<mgrwt>
<rscale>  0 0.59449385E+04</rscale>
<asrwt>0</asrwt>
<pdfrwt beam="1">  1        1 0.60457024E+00 0.59449385E+04</pdfrwt>
<pdfrwt beam="2">  1       -1 0.34590853E+00 0.59449385E+04</pdfrwt>
<totfact> 0.12221425E-03</totfact>
</mgrwt>
</event>
<event>
 8      1 +1.2359593e-08 4.71151300e+03 7.81860800e-03 7.87461800e-02
       -2 -1    0    0    0  501 -0.0000000000e+00 +0.0000000000e+00 +2.7765563020e+03 2.7765563020e+03 2.5500000000e-03 0.0000e+00 -1.0000e+00
        2 -1    0    0  501    0 +0.0000000000e+00 -0.0000000000e+00 -1.9987305106e+03 1.9987305106e+03 2.5500000000e-03 0.0000e+00 1.0000e+00
  1000011  2    1    2    0    0 -1.5734808697e+02 -5.3999798048e+02 -2.9333057758e+01 2.3195161511e+03 2.2500974440e+03 3.3109e+02 0.0000e+00
 -1000011  2    1    2    0    0 +1.5734808697e+02 +5.3999798048e+02 +8.0715884911e+02 2.4557706615e+03 2.2500995300e+03 1.0292e+03 0.0000e+00
       11  1    3    3    0    0 -4.2191718546e-02 +6.9000721502e-02 +7.5246762478e-03 8.1228827414e-02 5.1100000000e-04 0.0000e+00 1.0000e+00
  1000022  1    3    3    0    0 -1.5730589525e+02 -5.4006698120e+02 -2.9340582434e+01 2.3194349223e+03 2.2500000000e+03 0.0000e+00 0.0000e+00
      -11  1    4    4    0    0 -3.9651708131e-02 -6.6082328032e-02 +1.1610866379e-02 7.7937188502e-02 5.1100000000e-04 0.0000e+00 -1.0000e+00
  1000022  1    4    4    0    0 +1.5738773868e+02 +5.4006406281e+02 +8.0714723824e+02 2.4556927243e+03 2.2500000000e+03 0.0000e+00 0.0000e+00
<mgrwt>
<rscale>  0 0.47115126E+04</rscale>
<asrwt>0</asrwt>
<pdfrwt beam="1">  1        2 0.30749700E+00 0.47115126E+04</pdfrwt>
<pdfrwt beam="2">  1       -2 0.42716251E+00 0.47115126E+04</pdfrwt>
<totfact> 0.24533107E-02</totfact>
</mgrwt>
</event>
<event>
 8      1 +1.2359593e-08 4.93866400e+03 7.81860800e-03 7.83803900e-02
       -2 -1    0    0    0  501 -0.0000000000e+00 +0.0000000000e+00 +1.6360125707e+03 1.6360125707e+03 2.5500000000e-03 0.0000e+00 -1.0000e+00
        2 -1    0    0  501    0 +0.0000000000e+00 -0.0000000000e+00 -3.7271106771e+03 3.7271106771e+03 2.5500000000e-03 0.0000e+00 1.0000e+00
  1000011  2    1    2    0    0 -3.2174631057e+02 +4.1155967839e+02 -1.9933421817e+03 3.0511092791e+03 2.2501006027e+03 8.9449e+02 0.0000e+00
 -1000011  2    1    2    0    0 +3.2174631057e+02 -4.1155967839e+02 -9.7755924616e+01 2.3120139687e+03 2.2501000674e+03 1.3118e+03 0.0000e+00
       11  1    3    3    0    0 +1.4347322141e-02 -5.9402313124e-02 -1.5252046934e-01 1.6430835269e-01 5.1100000000e-04 0.0000e+00 1.0000e+00
  1000022  1    3    3    0    0 -3.2176065789e+02 +4.1161908070e+02 -1.9931896612e+03 3.0509449707e+03 2.2500000000e+03 0.0000e+00 0.0000e+00
      -11  1    4    4    0    0 -5.2654107405e-02 -3.7550714281e-03 +7.0109735665e-02 8.7762129895e-02 5.1100000000e-04 0.0000e+00 -1.0000e+00
  1000022  1    4    4    0    0 +3.2179896468e+02 -4.1155592332e+02 -9.7826034352e+01 2.3119262066e+03 2.2500000000e+03 0.0000e+00 0.0000e+00
<mgrwt>
<rscale>  0 0.49386638E+04</rscale>
<asrwt>0</asrwt>
<pdfrwt beam="1">  1        2 0.57340164E+00 0.49386638E+04</pdfrwt>
<pdfrwt beam="2">  1       -2 0.25169424E+00 0.49386638E+04</pdfrwt>
<totfact> 0.25500753E-02</totfact>
</mgrwt>
</event>
<event>
 8      1 +1.2359593e-08 5.13100100e+03 7.81860800e-03 7.80861100e-02
       -2 -1    0    0    0  501 -0.0000000000e+00 +0.0000000000e+00 +2.0589339712e+03 2.0589339712e+03 2.5500000000e-03 0.0000e+00 -1.0000e+00
        2 -1    0    0  501    0 +0.0000000000e+00 -0.0000000000e+00 -3.1966998912e+03 3.1966998912e+03 2.5500000000e-03 0.0000e+00 1.0000e+00
  1000011  2    1    2    0    0 -8.2646308831e+02 +8.1477821623e+02 -1.4416208527e+02 2.5358720624e+03 2.2501021382e+03 1.0032e+03 0.0000e+00
 -1000011  2    1    2    0    0 +8.2646308831e+02 -8.1477821623e+02 -9.9360383469e+02 2.7197617999e+03 2.2501001956e+03 1.0288e+03 0.0000e+00
       11  1    3    3    0    0 +4.1414126891e-03 -4.9823479003e-02 -5.7985508380e-02 7.6564420169e-02 5.1100000000e-04 0.0000e+00 1.0000e+00
  1000022  1    3    3    0    0 -8.2646722972e+02 +8.1482803971e+02 -1.4410409976e+02 2.5357954980e+03 2.2500000000e+03 0.0000e+00 0.0000e+00
      -11  1    4    4    0    0 +1.5994442661e-02 +5.5661290848e-02 +2.3485993441e-02 6.2496833339e-02 5.1100000000e-04 0.0000e+00 -1.0000e+00
  1000022  1    4    4    0    0 +8.2644709386e+02 -8.1483387752e+02 -9.9362732068e+02 2.7196993031e+03 2.2500000000e+03 0.0000e+00 0.0000e+00
<mgrwt>
<rscale>  0 0.51310015E+04</rscale>
<asrwt>0</asrwt>
<pdfrwt beam="1">  1        2 0.49179998E+00 0.51310015E+04</pdfrwt>
<pdfrwt beam="2">  1       -2 0.31675907E+00 0.51310015E+04</pdfrwt>
<totfact> 0.23520868E-02</totfact>
</mgrwt>
</event>
<event>
 8      1 +1.2359593e-08 4.54254200e+03 7.81860800e-03 7.90323100e-02
        2 -1    0    0  501    0 +0.0000000000e+00 +0.0000000000e+00 +2.8850506981e+03 2.8850506981e+03 2.5500000000e-03 0.0000e+00 1.0000e+00
       -2 -1    0    0    0  501 -0.0000000000e+00 -0.0000000000e+00 -1.7880699740e+03 1.7880699740e+03 2.5500000000e-03 0.0000e+00 -1.0000e+00
  1000011  2    1    2    0    0 +1.4158497028e+02 +2.5553243125e+01 +8.3031063542e+02 2.4027115869e+03 2.2500906529e+03 5.6411e+02 0.0000e+00
 -1000011  2    1    2    0    0 -1.4158497028e+02 -2.5553243125e+01 +2.6667008861e+02 2.2704090852e+03 2.2500989325e+03 2.2514e+02 0.0000e+00
       11  1    3    3    0    0 -4.1893826161e-02 -4.9687941982e-02 +9.4205724119e-02 1.1445070270e-01 5.1100000000e-04 0.0000e+00 1.0000e+00
  1000022  1    3    3    0    0 +1.4162686411e+02 +2.5602931067e+01 +8.3021642970e+02 2.4025971362e+03 2.2500000000e+03 0.0000e+00 0.0000e+00
      -11  1    4    4    0    0 +1.0202177981e-02 +2.4385934825e-02 -8.3258488039e-02 8.7355566547e-02 5.1100000000e-04 0.0000e+00 -1.0000e+00
  1000022  1    4    4    0    0 -1.4159517246e+02 -2.5577629060e+01 +2.6675334709e+02 2.2703217297e+03 2.2500000000e+03 0.0000e+00 0.0000e+00
<mgrwt>
<rscale>  0 0.45425423E+04</rscale>
<asrwt>0</asrwt>
<pdfrwt beam="1">  1        2 0.44385395E+00 0.45425423E+04</pdfrwt>
<pdfrwt beam="2">  1       -2 0.27508769E+00 0.45425423E+04</pdfrwt>
<totfact> 0.69893785E-02</totfact>
</mgrwt>
</event>
<event>
 8      1 +1.2359593e-08 4.51978300e+03 7.81860800e-03 7.90718300e-02
       -2 -1    0    0    0  501 -0.0000000000e+00 +0.0000000000e+00 +2.9116291171e+03 2.9116291171e+03 2.5500000000e-03 0.0000e+00 -1.0000e+00
        2 -1    0    0  501    0 +0.0000000000e+00 -0.0000000000e+00 -1.7540383272e+03 1.7540383272e+03 2.5500000000e-03 0.0000e+00 1.0000e+00
  1000011  2    1    2    0    0 -7.5756109763e+01 +6.4979534688e+01 +3.8789838575e+02 2.2854700247e+03 2.2500992751e+03 3.7929e+02 0.0000e+00
 -1000011  2    1    2    0    0 +7.5756109763e+01 -6.4979534688e+01 +7.6969240408e+02 2.3801974196e+03 2.2501004492e+03 1.6747e+03 0.0000e+00
       11  1    3    3    0    0 -9.0333869870e-02 +4.6405575502e-02 -2.6922474079e-03 1.0159327913e-01 5.1100000000e-04 0.0000e+00 1.0000e+00
  1000022  1    3    3    0    0 -7.5665775893e+01 +6.4933129112e+01 +3.8790107800e+02 2.2853684314e+03 2.2500000000e+03 0.0000e+00 0.0000e+00
      -11  1    4    4    0    0 +2.5531334638e-02 +8.2806001555e-02 +8.3964495003e-02 1.2066059845e-01 5.1100000000e-04 0.0000e+00 -1.0000e+00
  1000022  1    4    4    0    0 +7.5730578428e+01 -6.5062340689e+01 +7.6960843959e+02 2.3800767590e+03 2.2500000000e+03 0.0000e+00 0.0000e+00
<mgrwt>
<rscale>  0 0.45197828E+04</rscale>
<asrwt>0</asrwt>
<pdfrwt beam="1">  1        2 0.26985205E+00 0.45197828E+04</pdfrwt>
<pdfrwt beam="2">  1       -2 0.44794294E+00 0.45197828E+04</pdfrwt>
<totfact> 0.24825429E-02</totfact>
</mgrwt>
</event>
<event>
 8      1 +1.2359593e-08 6.33025800e+03 7.81860800e-03 7.65075000e-02
       -2 -1    0    0    0  501 -0.0000000000e+00 +0.0000000000e+00 +2.8353500500e+03 2.8353500500e+03 2.5500000000e-03 0.0000e+00 -1.0000e+00
        2 -1    0    0  501    0 +0.0000000000e+00 -0.0000000000e+00 -3.5332642103e+03 3.5332642103e+03 2.5500000000e-03 0.0000e+00 1.0000e+00
  1000011  2    1    2    0    0 -4.2431025351e+02 -1.9091204140e+03 +7.2064464126e+02 3.0670936726e+03 2.2501010980e+03 3.2428e+02 0.0000e+00
 -1000011  2    1    2    0    0 +4.2431025351e+02 +1.9091204140e+03 -1.4185588015e+03 3.3015205878e+03 2.2500998137e+03 5.5578e+02 0.0000e+00
       11  1    3    3    0    0 -1.0425256969e-01 -7.3237460113e-02 +8.8026019419e-02 1.5485853070e-01 5.1100000000e-04 0.0000e+00 1.0000e+00
  1000022  1    3    3    0    0 -4.2420600094e+02 -1.9090471766e+03 +7.2055661524e+02 3.0669388141e+03 2.2500000000e+03 0.0000e+00 0.0000e+00
      -11  1    4    4    0    0 +5.6496991844e-02 +1.8021937035e-02 +3.6905912427e-02 6.9849892202e-02 5.1100000000e-04 0.0000e+00 -1.0000e+00
  1000022  1    4    4    0    0 +4.2425375652e+02 +1.9091023921e+03 -1.4185957074e+03 3.3014507379e+03 2.2500000000e+03 0.0000e+00 0.0000e+00
<mgrwt>
<rscale>  0 0.63302578E+04</rscale>
<asrwt>0</asrwt>
<pdfrwt beam="1">  1        2 0.54357911E+00 0.63302578E+04</pdfrwt>
<pdfrwt beam="2">  1       -2 0.43620770E+00 0.63302578E+04</pdfrwt>
<totfact> 0.21685125E-03</totfact>
</mgrwt>
</event>
<event>
 8      1 +1.2359593e-08 4.98610000e+03 7.81860800e-03 7.83065500e-02
        2 -1    0    0  501    0 +0.0000000000e+00 +0.0000000000e+00 +3.9285074098e+03 3.9285074098e+03 2.5500000000e-03 0.0000e+00 1.0000e+00
       -2 -1    0    0    0  501 -0.0000000000e+00 -0.0000000000e+00 -1.5821020056e+03 1.5821020056e+03 2.5500000000e-03 0.0000e+00 -1.0000e+00
  1000011  2    1    2    0    0 -6.8296416084e+02 -3.4617584825e+02 +3.4167898423e+02 2.4012430489e+03 2.2500990842e+03 7.6485e+02 0.0000e+00
 -1000011  2    1    2    0    0 +6.8296416084e+02 +3.4617584825e+02 +2.0047264199e+03 3.1093663665e+03 2.2501007576e+03 3.3327e+02 0.0000e+00
       11  1    3    3    0    0 +5.8876690213e-02 +1.1107217365e-02 -3.5196450218e-02 6.9490184114e-02 5.1100000000e-04 0.0000e+00 1.0000e+00
  1000022  1    3    3    0    0 -6.8302303753e+02 -3.4618695547e+02 +3.4171418068e+02 2.4011735587e+03 2.2500000000e+03 0.0000e+00 0.0000e+00
      -11  1    4    4    0    0 +7.6315499557e-02 -3.8712190525e-02 +3.2645545187e-04 8.5574858416e-02 5.1100000000e-04 0.0000e+00 -1.0000e+00
  1000022  1    4    4    0    0 +6.8288784534e+02 +3.4621456044e+02 +2.0047260935e+03 3.1092807916e+03 2.2500000000e+03 0.0000e+00 0.0000e+00
<mgrwt>
<rscale>  0 0.49861005E+04</rscale>
<asrwt>0</asrwt>
<pdfrwt beam="1">  1        2 0.60438574E+00 0.49861005E+04</pdfrwt>
<pdfrwt beam="2">  1       -2 0.24340031E+00 0.49861005E+04</pdfrwt>
<totfact> 0.19994008E-02</totfact>
</mgrwt>
</event>
<event>
 8      1 +1.2359593e-08 4.79351700e+03 7.81860800e-03 7.86117300e-02
       -2 -1    0    0    0  501 -0.0000000000e+00 +0.0000000000e+00 +2.0509433822e+03 2.0509433822e+03 2.5500000000e-03 0.0000e+00 -1.0000e+00
        2 -1    0    0  501    0 +0.0000000000e+00 -0.0000000000e+00 -2.8008828268e+03 2.8008828268e+03 2.5500000000e-03 0.0000e+00 1.0000e+00
  1000011  2    1    2    0    0 -4.0033327839e+02 +1.6058661165e+02 -1.0874106332e+03 2.5360344854e+03 2.2501009383e+03 2.1944e+02 0.0000e+00
 -1000011  2    1    2    0    0 +4.0033327839e+02 -1.6058661165e+02 +3.3747118856e+02 2.3157917236e+03 2.2500999334e+03 3.6845e+02 0.0000e+00
       11  1    3    3    0    0 +7.8581998568e-02 +2.4337984764e-02 -9.6516498861e-03 8.2830446756e-02 5.1100000000e-04 0.0000e+00 1.0000e+00
  1000022  1    3    3    0    0 -4.0041186039e+02 +1.6056227366e+02 -1.0874009816e+03 2.5359516550e+03 2.2500000000e+03 0.0000e+00 0.0000e+00
      -11  1    4    4    0    0 +4.5510352871e-03 +3.5994952819e-02 +1.0449397297e-01 1.1061464511e-01 5.1100000000e-04 0.0000e+00 -1.0000e+00
  1000022  1    4    4    0    0 +4.0032872735e+02 -1.6062260660e+02 +3.3736669459e+02 2.3156811089e+03 2.2500000000e+03 0.0000e+00 0.0000e+00
<mgrwt>
<rscale>  0 0.47935173E+04</rscale>
<asrwt>0</asrwt>
<pdfrwt beam="1">  1        2 0.43090505E+00 0.47935173E+04</pdfrwt>
<pdfrwt beam="2">  1       -2 0.31552975E+00 0.47935173E+04</pdfrwt>
<totfact> 0.43600469E-02</totfact>
</mgrwt>
</event>
<event>
 8      1 +1.2359593e-08 6.56482600e+03 7.81860800e-03 7.62406000e-02
        2 -1    0    0  501    0 +0.0000000000e+00 +0.0000000000e+00 +3.5346495693e+03 3.5346495693e+03 2.5500000000e-03 0.0000e+00 1.0000e+00
       -2 -1    0    0    0  501 -0.0000000000e+00 -0.0000000000e+00 -3.0481763958e+03 3.0481763958e+03 2.5500000000e-03 0.0000e+00 -1.0000e+00
  1000011  2    1    2    0    0 -1.4278233717e+03 +2.9043002610e+02 +2.1427163241e+03 3.4317938248e+03 2.2500992043e+03 5.8858e+02 0.0000e+00
 -1000011  2    1    2    0    0 +1.4278233717e+03 -2.9043002610e+02 -1.6562431506e+03 3.1510321403e+03 2.2500739975e+03 1.7159e+03 0.0000e+00
       11  1    3    3    0    0 -1.4450201254e-01 +8.7140658310e-03 +2.1955578434e-01 2.6298625370e-01 5.1100000000e-04 0.0000e+00 1.0000e+00
  1000022  1    3    3    0    0 -1.4276788697e+03 +2.9042131204e+02 +2.1424967683e+03 3.4315308385e+03 2.2500000000e+03 0.0000e+00 0.0000e+00
      -11  1    4    4    0    0 +1.0786370528e-01 -5.1528093212e-02 -1.2085582415e-01 1.6998857056e-01 5.1100000000e-04 0.0000e+00 -1.0000e+00
  1000022  1    4    4    0    0 +1.4277155080e+03 -2.9037849801e+02 -1.6561222948e+03 3.1508621517e+03 2.2500000000e+03 0.0000e+00 0.0000e+00
<mgrwt>
<rscale>  0 0.65648261E+04</rscale>
<asrwt>0</asrwt>
<pdfrwt beam="1">  1        2 0.54379224E+00 0.65648261E+04</pdfrwt>
<pdfrwt beam="2">  1       -2 0.46895021E+00 0.65648261E+04</pdfrwt>
<totfact> 0.12979993E-03</totfact>
</mgrwt>
</event>
<event>
 8      1 +1.2359593e-08 4.96809900e+03 7.81860800e-03 7.83344700e-02
        1 -1    0    0  501    0 +0.0000000000e+00 +0.0000000000e+00 +3.6691482549e+03 3.6691482549e+03 5.0400000000e-03 0.0000e+00 1.0000e+00
       -1 -1    0    0    0  501 -0.0000000000e+00 -0.0000000000e+00 -1.6817256825e+03 1.6817256825e+03 5.0400000000e-03 0.0000e+00 -1.0000e+00
  1000011  2    1    2    0    0 -9.9093724293e+02 +7.6962936253e+01 +6.2110981532e+02 2.5370468838e+03 2.2500999033e+03 2.0619e+03 0.0000e+00
 -1000011  2    1    2    0    0 +9.9093724293e+02 -7.6962936253e+01 +1.3663127570e+03 2.8138270536e+03 2.2500960478e+03 1.0417e+03 0.0000e+00
       11  1    3    3    0    0 -8.3566043971e-02 -2.8931301514e-02 +1.2120449333e-01 1.5003697486e-01 5.1100000000e-04 0.0000e+00 1.0000e+00
  1000022  1    3    3    0    0 -9.9085367689e+02 +7.6991867555e+01 +6.2098861083e+02 2.5368968468e+03 2.2500000000e+03 0.0000e+00 0.0000e+00
      -11  1    4    4    0    0 +2.6358624941e-02 +3.7363015394e-02 -4.4203719319e-02 6.3600329246e-02 5.1100000000e-04 0.0000e+00 -1.0000e+00
  1000022  1    4    4    0    0 +9.9091088431e+02 -7.7000299269e+01 +1.3663569607e+03 2.8137634533e+03 2.2500000000e+03 0.0000e+00 0.0000e+00
<mgrwt>
<rscale>  0 0.49680986E+04</rscale>
<asrwt>0</asrwt>
<pdfrwt beam="1">  1        1 0.56448434E+00 0.49680986E+04</pdfrwt>
<pdfrwt beam="2">  1       -1 0.25872703E+00 0.49680986E+04</pdfrwt>
<totfact> 0.80794850E-03</totfact>
</mgrwt>
</event>
<event>
 8      1 +1.2359593e-08 4.69321400e+03 7.81860800e-03 7.87765700e-02
        2 -1    0    0  501    0 +0.0000000000e+00 +0.0000000000e+00 +2.9039676075e+03 2.9039676075e+03 2.5500000000e-03 0.0000e+00 -1.0000e+00
       -2 -1    0    0    0  501 -0.0000000000e+00 -0.0000000000e+00 -1.8962207225e+03 1.8962207225e+03 2.5500000000e-03 0.0000e+00 1.0000e+00
  1000011  2    1    2    0    0 -1.3437348396e+02 +2.3174921171e+02 +1.1275656034e+03 2.5310309887e+03 2.2500999412e+03 3.4217e+03 0.0000e+00
 -1000011  2    1    2    0    0 +1.3437348396e+02 -2.3174921171e+02 -1.1981871833e+02 2.2691573413e+03 2.2501010164e+03 3.6329e+02 0.0000e+00
       11  1    3    3    0    0 -3.5412326038e-02 +9.9335786631e-02 +1.5057408635e-02 1.0652989027e-01 5.1100000000e-04 0.0000e+00 1.0000e+00
  1000022  1    3    3    0    0 -1.3433807163e+02 +2.3164987592e+02 +1.1275505459e+03 2.5309244588e+03 2.2500000000e+03 0.0000e+00 0.0000e+00
      -11  1    4    4    0    0 -2.4097498752e-02 +7.0488011443e-02 -5.8339650954e-02 9.4620423297e-02 5.1100000000e-04 0.0000e+00 -1.0000e+00
  1000022  1    4    4    0    0 +1.3439758145e+02 -2.3181969972e+02 -1.1976037868e+02 2.2690627209e+03 2.2500000000e+03 0.0000e+00 0.0000e+00
<mgrwt>
<rscale>  0 0.46932136E+04</rscale>
<asrwt>0</asrwt>
<pdfrwt beam="1">  1        2 0.44676425E+00 0.46932136E+04</pdfrwt>
<pdfrwt beam="2">  1       -2 0.29172627E+00 0.46932136E+04</pdfrwt>
<totfact> 0.53203140E-02</totfact>
</mgrwt>
</event>
<event>
 8      1 +1.2359593e-08 4.98510700e+03 7.81860800e-03 7.83080900e-02
        2 -1    0    0  501    0 +0.0000000000e+00 +0.0000000000e+00 +4.8437254506e+03 4.8437254506e+03 2.5500000000e-03 0.0000e+00 1.0000e+00
       -2 -1    0    0    0  501 -0.0000000000e+00 -0.0000000000e+00 -1.2826538315e+03 1.2826538316e+03 2.5500000000e-03 0.0000e+00 -1.0000e+00
  1000011  2    1    2    0    0 +4.4328095484e+02 -2.5116165920e+02 +2.9400938426e+03 3.7372018650e+03 2.2500990629e+03 1.0249e+02 0.0000e+00
 -1000011  2    1    2    0    0 -4.4328095484e+02 +2.5116165920e+02 +6.2097777648e+02 2.3891774171e+03 2.2501055859e+03 8.0296e+02 0.0000e+00
       11  1    3    3    0    0 +2.8721563340e-02 -7.7355651336e-02 +2.1705734868e-02 8.5324233171e-02 5.1100000000e-04 0.0000e+00 1.0000e+00
  1000022  1    3    3    0    0 +4.4325223327e+02 -2.5108430355e+02 +2.9400721368e+03 3.7371165408e+03 2.2500000000e+03 0.0000e+00 0.0000e+00
      -11  1    4    4    0    0 -1.2405446703e-01 +4.3869596131e-02 +3.4289690121e-02 1.3597829108e-01 5.1100000000e-04 0.0000e+00 -1.0000e+00
  1000022  1    4    4    0    0 -4.4315690037e+02 +2.5111778961e+02 +6.2094348679e+02 2.3890414388e+03 2.2500000000e+03 0.0000e+00 0.0000e+00
<mgrwt>
<rscale>  0 0.49851070E+04</rscale>
<asrwt>0</asrwt>
<pdfrwt beam="1">  1        2 0.74518855E+00 0.49851070E+04</pdfrwt>
<pdfrwt beam="2">  1       -2 0.19733135E+00 0.49851070E+04</pdfrwt>
<totfact> 0.52773626E-03</totfact>
</mgrwt>
</event>
<event>
 8      1 +1.2359593e-08 4.90412700e+03 7.81860800e-03 7.84346900e-02
        2 -1    0    0  501    0 +0.0000000000e+00 +0.0000000000e+00 +3.2039691151e+03 3.2039691151e+03 2.5500000000e-03 0.0000e+00 1.0000e+00
       -2 -1    0    0    0  501 -0.0000000000e+00 -0.0000000000e+00 -1.8766145568e+03 1.8766145568e+03 2.5500000000e-03 0.0000e+00 -1.0000e+00
  1000011  2    1    2    0    0 -7.6876342772e+02 -5.9453031026e+02 +7.3828087077e+02 2.5597822691e+03 2.2501029140e+03 2.0883e+03 0.0000e+00
 -1000011  2    1    2    0    0 +7.6876342772e+02 +5.9453031026e+02 +5.8907368748e+02 2.5208014028e+03 2.2501040876e+03 1.2987e+03 0.0000e+00
       11  1    3    3    0    0 -1.4029005056e-01 -2.5105199973e-02 +6.8874139858e-02 1.5828922048e-01 5.1100000000e-04 0.0000e+00 1.0000e+00
  1000022  1    3    3    0    0 -7.6862313766e+02 -5.9450520506e+02 +7.3821199663e+02 2.5596239799e+03 2.2500000000e+03 0.0000e+00 0.0000e+00
      -11  1    4    4    0    0 +9.8849264303e-02 -5.5125690272e-02 +2.6244981200e-02 1.1618553445e-01 5.1100000000e-04 0.0000e+00 -1.0000e+00
  1000022  1    4    4    0    0 +7.6866457845e+02 +5.9458543595e+02 +5.8904744250e+02 2.5206852172e+03 2.2500000000e+03 0.0000e+00 0.0000e+00
<mgrwt>
<rscale>  0 0.49041269E+04</rscale>
<asrwt>0</asrwt>
<pdfrwt beam="1">  1        2 0.49291832E+00 0.49041269E+04</pdfrwt>
<pdfrwt beam="2">  1       -2 0.28870993E+00 0.49041269E+04</pdfrwt>
<totfact> 0.35199184E-02</totfact>
</mgrwt>
</event>
<event>
 8      1 +1.2359593e-08 4.77236500e+03 7.81860800e-03 7.86461500e-02
       -2 -1    0    0    0  501 -0.0000000000e+00 +0.0000000000e+00 +3.4161835358e+03 3.4161835358e+03 2.5500000000e-03 0.0000e+00 -1.0000e+00
        2 -1    0    0  501    0 +0.0000000000e+00 -0.0000000000e+00 -1.6667330195e+03 1.6667330195e+03 2.5500000000e-03 0.0000e+00 1.0000e+00
  1000011  2    1    2    0    0 -3.0514709793e+02 +2.4981048409e+02 +1.4036755858e+02 2.2887078956e+03 2.2501023867e+03 2.6156e+02 0.0000e+00
 -1000011  2    1    2    0    0 +3.0514709793e+02 -2.4981048409e+02 +1.6090829577e+03 2.7942086596e+03 2.2500964511e+03 4.1653e+02 0.0000e+00
       11  1    3    3    0    0 -9.9836722719e-02 -1.2070075748e-02 -4.4394602969e-02 1.0992815510e-01 5.1100000000e-04 0.0000e+00 1.0000e+00
  1000022  1    3    3    0    0 -3.0504726120e+02 +2.4982255417e+02 +1.4041195318e+02 2.2885979675e+03 2.2500000000e+03 0.0000e+00 0.0000e+00
      -11  1    4    4    0    0 +7.8172449881e-02 -5.4092986487e-02 +7.5002814917e-03 9.5359834523e-02 5.1100000000e-04 0.0000e+00 -1.0000e+00
  1000022  1    4    4    0    0 +3.0506892548e+02 -2.4975639110e+02 +1.6090754574e+03 2.7941132998e+03 2.2500000000e+03 0.0000e+00 0.0000e+00
<mgrwt>
<rscale>  0 0.47723646E+04</rscale>
<asrwt>0</asrwt>
<pdfrwt beam="1">  1        2 0.25642046E+00 0.47723646E+04</pdfrwt>
<pdfrwt beam="2">  1       -2 0.52556670E+00 0.47723646E+04</pdfrwt>
<totfact> 0.88626855E-03</totfact>
</mgrwt>
</event>
<event>
 8      1 +1.2359593e-08 5.25173900e+03 7.81860800e-03 7.79080500e-02
       -1 -1    0    0    0  501 -0.0000000000e+00 +0.0000000000e+00 +4.8399149550e+03 4.8399149550e+03 5.0400000000e-03 0.0000e+00 -1.0000e+00
        1 -1    0    0  501    0 +0.0000000000e+00 -0.0000000000e+00 -1.4246511925e+03 1.4246511926e+03 5.0400000000e-03 0.0000e+00 1.0000e+00
  1000011  2    1    2    0    0 +5.0670940878e+02 -1.4861723374e+02 +2.2090944455e+02 2.3217639036e+03 2.2500989165e+03 1.1354e+03 0.0000e+00
 -1000011  2    1    2    0    0 -5.0670940878e+02 +1.4861723374e+02 +3.1943543179e+03 3.9428022440e+03 2.2500996688e+03 9.1868e+02 0.0000e+00
       11  1    3    3    0    0 +8.6895709889e-02 -1.4184689024e-02 -6.5156657177e-02 1.0953410698e-01 5.1100000000e-04 0.0000e+00 1.0000e+00
  1000022  1    3    3    0    0 +5.0662251307e+02 -1.4860304905e+02 +2.2097460121e+02 2.3216543695e+03 2.2500000000e+03 0.0000e+00 0.0000e+00
      -11  1    4    4    0    0 -5.2973091607e-02 -8.3619846220e-02 +1.9291124529e-01 2.1682581964e-01 5.1100000000e-04 0.0000e+00 -1.0000e+00
  1000022  1    4    4    0    0 -5.0665643569e+02 +1.4870085359e+02 +3.1941614067e+03 3.9425854182e+03 2.2500000000e+03 0.0000e+00 0.0000e+00
<mgrwt>
<rscale>  0 0.52517390E+04</rscale>
<asrwt>0</asrwt>
<pdfrwt beam="1">  1        1 0.21917711E+00 0.52517390E+04</pdfrwt>
<pdfrwt beam="2">  1       -1 0.74460230E+00 0.52517390E+04</pdfrwt>
<totfact> 0.70857222E-04</totfact>
</mgrwt>
</event>
<event>
 8      1 +1.2359593e-08 5.91060100e+03 7.81860800e-03 7.70158600e-02
        2 -1    0    0  501    0 +0.0000000000e+00 +0.0000000000e+00 +2.8268685273e+03 2.8268685273e+03 2.5500000000e-03 0.0000e+00 1.0000e+00
       -2 -1    0    0    0  501 -0.0000000000e+00 -0.0000000000e+00 -3.0895675700e+03 3.0895675700e+03 2.5500000000e-03 0.0000e+00 -1.0000e+00
  1000011  2    1    2    0    0 +5.9218475056e+02 +1.2497400977e+03 -1.4586724385e+03 3.0171535948e+03 2.2501016512e+03 2.1456e+01 0.0000e+00
 -1000011  2    1    2    0    0 -5.9218475056e+02 -1.2497400977e+03 +1.1959733957e+03 2.8992825026e+03 2.2501007923e+03 1.8276e+03 0.0000e+00
       11  1    3    3    0    0 +6.6168841823e-02 -3.9481465133e-02 -1.1226882855e-02 7.7867870982e-02 5.1100000000e-04 0.0000e+00 1.0000e+00
  1000022  1    3    3    0    0 +5.9211858172e+02 +1.2497795792e+03 -1.4586612117e+03 3.0170757269e+03 2.2500000000e+03 0.0000e+00 0.0000e+00
      -11  1    4    4    0    0 -4.0309539460e-02 -1.0759139786e-01 -3.2532821080e-02 1.1941278426e-01 5.1100000000e-04 0.0000e+00 -1.0000e+00
  1000022  1    4    4    0    0 -5.9214444102e+02 -1.2496325063e+03 +1.1960059286e+03 2.8991630898e+03 2.2500000000e+03 0.0000e+00 0.0000e+00
<mgrwt>
<rscale>  0 0.59106011E+04</rscale>
<asrwt>0</asrwt>
<pdfrwt beam="1">  1        2 0.43490285E+00 0.59106011E+04</pdfrwt>
<pdfrwt beam="2">  1       -2 0.47531809E+00 0.59106011E+04</pdfrwt>
<totfact> 0.36005671E-03</totfact>
</mgrwt>
</event>
<event>
 8      1 +1.2359593e-08 4.94361800e+03 7.81860800e-03 7.83726400e-02
        2 -1    0    0  501    0 +0.0000000000e+00 +0.0000000000e+00 +3.0515548502e+03 3.0515548502e+03 2.5500000000e-03 0.0000e+00 1.0000e+00
       -2 -1    0    0    0  501 -0.0000000000e+00 -0.0000000000e+00 -2.0022054175e+03 2.0022054175e+03 2.5500000000e-03 0.0000e+00 -1.0000e+00
  1000011  2    1    2    0    0 +6.9825512867e+02 +4.9330602627e+02 +1.0993129487e+03 2.6461958838e+03 2.2501005836e+03 3.6566e+02 0.0000e+00
 -1000011  2    1    2    0    0 -6.9825512867e+02 -4.9330602627e+02 -4.9963515943e+01 2.4075643839e+03 2.2501019643e+03 7.9447e+02 0.0000e+00
       11  1    3    3    0    0 -3.1022020000e-02 +9.6413360501e-02 +7.7382300353e-02 1.2746051409e-01 5.1100000000e-04 0.0000e+00 1.0000e+00
  1000022  1    3    3    0    0 +6.9828615069e+02 +4.9320961291e+02 +1.0992355664e+03 2.6460684233e+03 2.2500000000e+03 0.0000e+00 0.0000e+00
      -11  1    4    4    0    0 +1.3006242065e-02 +7.4024609927e-02 +1.1957541450e-02 7.6105509468e-02 5.1100000000e-04 0.0000e+00 -1.0000e+00
  1000022  1    4    4    0    0 -6.9826813491e+02 -4.9338005088e+02 -4.9975473485e+01 2.4074882784e+03 2.2500000000e+03 0.0000e+00 0.0000e+00
<mgrwt>
<rscale>  0 0.49436180E+04</rscale>
<asrwt>0</asrwt>
<pdfrwt beam="1">  1        2 0.46946997E+00 0.49436180E+04</pdfrwt>
<pdfrwt beam="2">  1       -2 0.30803161E+00 0.49436180E+04</pdfrwt>
<totfact> 0.33503824E-02</totfact>
</mgrwt>
</event>
<event>
 8      1 +1.2359593e-08 5.08934000e+03 7.81860800e-03 7.81487200e-02
        2 -1    0    0  501    0 +0.0000000000e+00 +0.0000000000e+00 +2.2782764896e+03 2.2782764896e+03 2.5500000000e-03 0.0000e+00 1.0000e+00
       -2 -1    0    0    0  501 -0.0000000000e+00 -0.0000000000e+00 -2.8422124661e+03 2.8422124661e+03 2.5500000000e-03 0.0000e+00 -1.0000e+00
  1000011  2    1    2    0    0 +4.9230023627e+02 -4.1849118845e+02 -1.2854814199e+03 2.6707494132e+03 2.2500990089e+03 3.0434e+02 0.0000e+00
 -1000011  2    1    2    0    0 -4.9230023627e+02 +4.1849118845e+02 +7.2154544337e+02 2.4497395424e+03 2.2501336853e+03 3.2599e+03 0.0000e+00
       11  1    3    3    0    0 +5.1725316865e-02 +2.8655623142e-02 +3.7878127184e-02 7.0225824122e-02 5.1100000000e-04 0.0000e+00 1.0000e+00
  1000022  1    3    3    0    0 +4.9224851095e+02 -4.1851984407e+02 -1.2855192980e+03 2.6706791874e+03 2.2500000000e+03 0.0000e+00 0.0000e+00
      -11  1    4    4    0    0 +3.5280188555e-02 -8.9482873361e-02 -1.1866816818e-02 9.6917276234e-02 5.1100000000e-04 0.0000e+00 -1.0000e+00
  1000022  1    4    4    0    0 -4.9233551645e+02 +4.1858067132e+02 +7.2155731019e+02 2.4496426252e+03 2.2500000000e+03 0.0000e+00 0.0000e+00
<mgrwt>
<rscale>  0 0.50893402E+04</rscale>
<asrwt>0</asrwt>
<pdfrwt beam="1">  1        2 0.35050408E+00 0.50893402E+04</pdfrwt>
<pdfrwt beam="2">  1       -2 0.43726346E+00 0.50893402E+04</pdfrwt>
<totfact> 0.14241757E-02</totfact>
</mgrwt>
</event>
<event>
 8      1 +1.2359593e-08 5.26291100e+03 7.81860800e-03 7.78918300e-02
       -2 -1    0    0    0  501 -0.0000000000e+00 +0.0000000000e+00 +2.2013809241e+03 2.2013809241e+03 2.5500000000e-03 0.0000e+00 -1.0000e+00
        2 -1    0    0  501    0 +0.0000000000e+00 -0.0000000000e+00 -3.1455513595e+03 3.1455513595e+03 2.5500000000e-03 0.0000e+00 1.0000e+00
  1000011  2    1    2    0    0 -9.5756916587e+02 +6.1686468475e+02 -1.2351700536e+03 2.8082132570e+03 2.2501013064e+03 4.3864e+00 0.0000e+00
 -1000011  2    1    2    0    0 +9.5756916587e+02 -6.1686468475e+02 +2.9099961815e+02 2.5387190265e+03 2.2501006136e+03 8.0813e+02 0.0000e+00
       11  1    3    3    0    0 -5.5272766243e-03 +9.6697689545e-02 -1.2822522611e-01 1.6069525053e-01 5.1100000000e-04 0.0000e+00 1.0000e+00
  1000022  1    3    3    0    0 -9.5756363860e+02 +6.1676798706e+02 -1.2350418283e+03 2.8080525617e+03 2.2500000000e+03 0.0000e+00 0.0000e+00
      -11  1    4    4    0    0 +1.4998626485e-01 -2.0014936154e-02 +2.6956712961e-02 1.5369906477e-01 5.1100000000e-04 0.0000e+00 -1.0000e+00
  1000022  1    4    4    0    0 +9.5741917961e+02 -6.1684466981e+02 +2.9097266144e+02 2.5385653275e+03 2.2500000000e+03 0.0000e+00 0.0000e+00
<mgrwt>
<rscale>  0 0.52629105E+04</rscale>
<asrwt>0</asrwt>
<pdfrwt beam="1">  1        2 0.48393098E+00 0.52629105E+04</pdfrwt>
<pdfrwt beam="2">  1       -2 0.33867399E+00 0.52629105E+04</pdfrwt>
<totfact> 0.18370138E-02</totfact>
</mgrwt>
</event>
<event>
 8      1 +1.2359593e-08 5.11587200e+03 7.81860800e-03 7.81087700e-02
        2 -1    0    0  501    0 +0.0000000000e+00 +0.0000000000e+00 +3.2755922808e+03 3.2755922808e+03 2.5500000000e-03 0.0000e+00 -1.0000e+00
       -2 -1    0    0    0  501 -0.0000000000e+00 -0.0000000000e+00 -1.9975121379e+03 1.9975121379e+03 2.5500000000e-03 0.0000e+00 1.0000e+00
  1000011  2    1    2    0    0 +7.2649256752e+02 -8.7636721180e+02 +1.9657826285e+02 2.5293107735e+03 2.2501020054e+03 2.4562e+02 0.0000e+00
 -1000011  2    1    2    0    0 -7.2649256752e+02 +8.7636721180e+02 +1.0815018801e+03 2.7437936453e+03 2.2500991780e+03 1.9917e+02 0.0000e+00
       11  1    3    3    0    0 +5.7901984837e-02 -6.4524109947e-02 -8.7187079155e-02 1.2295465972e-01 5.1100000000e-04 0.0000e+00 1.0000e+00
  1000022  1    3    3    0    0 +7.2643466553e+02 -8.7630268769e+02 +1.9666544993e+02 2.5291878188e+03 2.2500000000e+03 0.0000e+00 0.0000e+00
      -11  1    4    4    0    0 -3.1337123011e-02 -4.9972309361e-02 +9.3432030225e-02 1.1049457957e-01 5.1100000000e-04 0.0000e+00 -1.0000e+00
  1000022  1    4    4    0    0 -7.2646123040e+02 +8.7641718411e+02 +1.0814084480e+03 2.7436831507e+03 2.2500000000e+03 0.0000e+00 0.0000e+00
<mgrwt>
<rscale>  0 0.51158715E+04</rscale>
<asrwt>0</asrwt>
<pdfrwt beam="1">  1        2 0.50393727E+00 0.51158715E+04</pdfrwt>
<pdfrwt beam="2">  1       -2 0.30730956E+00 0.51158715E+04</pdfrwt>
<totfact> 0.23883451E-02</totfact>
</mgrwt>
</event>
<event>
 8      1 +1.2359593e-08 5.27021900e+03 7.81860800e-03 7.78812300e-02
        2 -1    0    0  501    0 +0.0000000000e+00 +0.0000000000e+00 +3.5665431657e+03 3.5665431657e+03 2.5500000000e-03 0.0000e+00 1.0000e+00
       -2 -1    0    0    0  501 -0.0000000000e+00 -0.0000000000e+00 -1.9469281618e+03 1.9469281618e+03 2.5500000000e-03 0.0000e+00 -1.0000e+00
  1000011  2    1    2    0    0 +9.5559614786e+02 +4.0973568127e+02 +1.7454007545e+03 3.0315680516e+03 2.2500963826e+03 8.2763e+02 0.0000e+00
 -1000011  2    1    2    0    0 -9.5559614786e+02 -4.0973568127e+02 -1.2578575065e+02 2.4819032759e+03 2.2501054396e+03 1.5701e+03 0.0000e+00
       11  1    3    3    0    0 +4.7037542363e-02 +8.6106418866e-02 +1.6859540990e-01 1.9506798519e-01 5.1100000000e-04 0.0000e+00 1.0000e+00
  1000022  1    3    3    0    0 +9.5554911032e+02 +4.0964957485e+02 +1.7452321591e+03 3.0313729836e+03 2.2500000000e+03 0.0000e+00 0.0000e+00
      -11  1    4    4    0    0 -1.3103154376e-01 +3.5534305504e-02 -4.2765175497e-02 1.4234139577e-01 5.1100000000e-04 0.0000e+00 -1.0000e+00
  1000022  1    4    4    0    0 -9.5546511632e+02 -4.0977121557e+02 -1.2574298547e+02 2.4817609345e+03 2.2500000000e+03 0.0000e+00 0.0000e+00
<mgrwt>
<rscale>  0 0.52702195E+04</rscale>
<asrwt>0</asrwt>
<pdfrwt beam="1">  1        2 0.54869894E+00 0.52702195E+04</pdfrwt>
<pdfrwt beam="2">  1       -2 0.29952741E+00 0.52702195E+04</pdfrwt>
<totfact> 0.16595702E-02</totfact>
</mgrwt>
</event>
<event>
 8      1 +1.2359593e-08 5.40299100e+03 7.81860800e-03 7.76918000e-02
        2 -1    0    0  501    0 +0.0000000000e+00 +0.0000000000e+00 +5.2112716536e+03 5.2112716536e+03 2.5500000000e-03 0.0000e+00 1.0000e+00
       -2 -1    0    0    0  501 -0.0000000000e+00 -0.0000000000e+00 -1.4004408294e+03 1.4004408294e+03 2.5500000000e-03 0.0000e+00 -1.0000e+00
  1000011  2    1    2    0    0 +5.1951731485e+02 -1.0011952093e+03 +7.0465648535e+02 2.6137673785e+03 2.2500997887e+03 8.2878e+02 0.0000e+00
 -1000011  2    1    2    0    0 -5.1951731485e+02 +1.0011952093e+03 +3.1061743388e+03 3.9979451045e+03 2.2501013194e+03 2.7063e+03 0.0000e+00
       11  1    3    3    0    0 -1.6131967917e-02 -1.1311766204e-01 +1.0289768181e-01 1.5376618424e-01 5.1100000000e-04 0.0000e+00 1.0000e+00
  1000022  1    3    3    0    0 +5.1953344682e+02 -1.0010820916e+03 +7.0455358767e+02 2.6136136123e+03 2.2500000000e+03 0.0000e+00 0.0000e+00
      -11  1    4    4    0    0 -1.1194053054e-01 +2.2459396841e-02 +8.0306019237e-02 1.3958661963e-01 5.1100000000e-04 0.0000e+00 -1.0000e+00
  1000022  1    4    4    0    0 -5.1940537432e+02 +1.0011727499e+03 +3.1060940328e+03 3.9978055179e+03 2.2500000000e+03 0.0000e+00 0.0000e+00
<mgrwt>
<rscale>  0 0.54029909E+04</rscale>
<asrwt>0</asrwt>
<pdfrwt beam="1">  1        2 0.80173409E+00 0.54029909E+04</pdfrwt>
<pdfrwt beam="2">  1       -2 0.21545244E+00 0.54029909E+04</pdfrwt>
<totfact> 0.12912504E-03</totfact>
</mgrwt>
</event>
<event>
 8      1 +1.2359593e-08 6.02961900e+03 7.81860800e-03 7.68674000e-02
        2 -1    0    0  501    0 +0.0000000000e+00 +0.0000000000e+00 +2.7843721816e+03 2.7843721816e+03 2.5500000000e-03 0.0000e+00 1.0000e+00
       -2 -1    0    0    0  501 -0.0000000000e+00 -0.0000000000e+00 -3.2643180211e+03 3.2643180211e+03 2.5500000000e-03 0.0000e+00 -1.0000e+00
  1000011  2    1    2    0    0 +9.7042127188e+02 +1.7106302510e+03 -6.3892099960e+02 3.0559995648e+03 2.2500977747e+03 2.7680e+03 0.0000e+00
 -1000011  2    1    2    0    0 -9.7042127188e+02 -1.7106302510e+03 +1.5897516013e+02 2.9926906379e+03 2.2501001872e+03 1.3094e+03 0.0000e+00
       11  1    3    3    0    0 -1.4192508952e-02 +2.1991672153e-02 +6.1583576485e-02 6.6916802605e-02 5.1100000000e-04 0.0000e+00 1.0000e+00
  1000022  1    3    3    0    0 +9.7043546439e+02 +1.7106082594e+03 -6.3898258317e+02 3.0559326480e+03 2.2500000000e+03 0.0000e+00 0.0000e+00
      -11  1    4    4    0    0 -9.8022023219e-02 -1.8468169353e-01 -2.9259279982e-02 2.1112084560e-01 5.1100000000e-04 0.0000e+00 -1.0000e+00
  1000022  1    4    4    0    0 -9.7032324985e+02 -1.7104455693e+03 +1.5900441941e+02 2.9924795171e+03 2.2500000000e+03 0.0000e+00 0.0000e+00
<mgrwt>
<rscale>  0 0.60296190E+04</rscale>
<asrwt>0</asrwt>
<pdfrwt beam="1">  1        2 0.42836495E+00 0.60296190E+04</pdfrwt>
<pdfrwt beam="2">  1       -2 0.50220277E+00 0.60296190E+04</pdfrwt>
<totfact> 0.25673057E-03</totfact>
</mgrwt>
</event>
<event>
 8      1 +1.2359593e-08 5.99260700e+03 7.81860800e-03 7.69131900e-02
        2 -1    0    0  501    0 +0.0000000000e+00 +0.0000000000e+00 +5.5991043000e+03 5.5991043000e+03 2.5500000000e-03 0.0000e+00 1.0000e+00
       -2 -1    0    0    0  501 -0.0000000000e+00 -0.0000000000e+00 -1.6034414623e+03 1.6034414623e+03 2.5500000000e-03 0.0000e+00 -1.0000e+00
  1000011  2    1    2    0    0 -8.2902077237e+02 +1.3038393922e+03 +5.1231530718e+02 2.7771721770e+03 2.2500990477e+03 7.1068e+02 0.0000e+00
 -1000011  2    1    2    0    0 +8.2902077237e+02 -1.3038393922e+03 +3.4833475305e+03 4.4253735853e+03 2.2500997199e+03 4.5501e+02 0.0000e+00
       11  1    3    3    0    0 +4.8433994097e-02 +2.6655825105e-02 -4.3414365719e-02 7.0295466492e-02 5.1100000000e-04 0.0000e+00 1.0000e+00
  1000022  1    3    3    0    0 -8.2906920637e+02 +1.3038127364e+03 +5.1235872154e+02 2.7771018815e+03 2.2500000000e+03 0.0000e+00 0.0000e+00
      -11  1    4    4    0    0 +1.1637397173e-01 +2.2240823804e-03 +1.4122210115e-01 1.8300762442e-01 5.1100000000e-04 0.0000e+00 -1.0000e+00
  1000022  1    4    4    0    0 +8.2890439840e+02 -1.3038416163e+03 +3.4832063084e+03 4.4251905777e+03 2.2500000000e+03 0.0000e+00 0.0000e+00
<mgrwt>
<rscale>  0 0.59926074E+04</rscale>
<asrwt>0</asrwt>
<pdfrwt beam="1">  1        2 0.86140066E+00 0.59926074E+04</pdfrwt>
<pdfrwt beam="2">  1       -2 0.24668330E+00 0.59926074E+04</pdfrwt>
<totfact> 0.16754904E-04</totfact>
</mgrwt>
</event>
<event>
 8      1 +1.2359593e-08 4.56981700e+03 7.81860800e-03 7.89852700e-02
       -2 -1    0    0    0  501 -0.0000000000e+00 +0.0000000000e+00 +1.9037432941e+03 1.9037432941e+03 2.5500000000e-03 0.0000e+00 -1.0000e+00
        2 -1    0    0  501    0 +0.0000000000e+00 -0.0000000000e+00 -2.7423896259e+03 2.7423896259e+03 2.5500000000e-03 0.0000e+00 1.0000e+00
  1000011  2    1    2    0    0 -3.2967021628e+02 -6.8558106693e+01 -6.3373822509e+02 2.3617700918e+03 2.2501002562e+03 8.7685e+02 0.0000e+00
 -1000011  2    1    2    0    0 +3.2967021628e+02 +6.8558106693e+01 -2.0490810668e+02 2.2843628283e+03 2.2500985608e+03 1.0683e+03 0.0000e+00
       11  1    3    3    0    0 -1.0669240269e-01 -3.7154605220e-02 -5.8276074554e-02 1.2712236328e-01 5.1100000000e-04 0.0000e+00 1.0000e+00
  1000022  1    3    3    0    0 -3.2956352388e+02 -6.8520952088e+01 -6.3367994902e+02 2.3616429694e+03 2.2500000000e+03 0.0000e+00 0.0000e+00
      -11  1    4    4    0    0 -7.2889710706e-02 +4.9359032378e-02 +1.2592114255e-04 8.8031247543e-02 5.1100000000e-04 0.0000e+00 -1.0000e+00
  1000022  1    4    4    0    0 +3.2974310599e+02 +6.8508747661e+01 -2.0490823260e+02 2.2842747970e+03 2.2500000000e+03 0.0000e+00 0.0000e+00
<mgrwt>
<rscale>  0 0.45698166E+04</rscale>
<asrwt>0</asrwt>
<pdfrwt beam="1">  1        2 0.42190610E+00 0.45698166E+04</pdfrwt>
<pdfrwt beam="2">  1       -2 0.29288358E+00 0.45698166E+04</pdfrwt>
<totfact> 0.66301234E-02</totfact>
</mgrwt>
</event>
<event>
 8      1 +1.2359593e-08 4.72700800e+03 7.81860800e-03 7.87205600e-02
       -1 -1    0    0    0  501 -0.0000000000e+00 +0.0000000000e+00 +2.0180029229e+03 2.0180029229e+03 5.0400000000e-03 0.0000e+00 -1.0000e+00
        1 -1    0    0  501    0 +0.0000000000e+00 -0.0000000000e+00 -2.7681578782e+03 2.7681578782e+03 5.0400000000e-03 0.0000e+00 1.0000e+00
  1000011  2    1    2    0    0 +1.0459763754e+02 +4.5970304508e+02 -9.3051988810e+02 2.4801361238e+03 2.2500978590e+03 1.0894e+03 0.0000e+00
 -1000011  2    1    2    0    0 -1.0459763754e+02 -4.5970304508e+02 +1.8036493281e+02 2.3060246773e+03 2.2501001640e+03 6.8256e+02 0.0000e+00
       11  1    3    3    0    0 +6.5786113162e-02 -5.5248303933e-02 -1.6364857840e-02 8.7454313780e-02 5.1100000000e-04 0.0000e+00 1.0000e+00
  1000022  1    3    3    0    0 +1.0453185143e+02 +4.5975829338e+02 -9.3050352324e+02 2.4800486695e+03 2.2500000000e+03 0.0000e+00 0.0000e+00
      -11  1    4    4    0    0 +5.3108907830e-02 +7.5539715788e-03 -7.0172612425e-02 8.8329355056e-02 5.1100000000e-04 0.0000e+00 -1.0000e+00
  1000022  1    4    4    0    0 -1.0465074645e+02 -4.5971059905e+02 +1.8043510542e+02 2.3059363480e+03 2.2500000000e+03 0.0000e+00 0.0000e+00
<mgrwt>
<rscale>  0 0.47270078E+04</rscale>
<asrwt>0</asrwt>
<pdfrwt beam="1">  1        1 0.42587044E+00 0.47270078E+04</pdfrwt>
<pdfrwt beam="2">  1       -1 0.31046199E+00 0.47270078E+04</pdfrwt>
<totfact> 0.18294713E-02</totfact>
</mgrwt>
</event>
<event>
 8      1 +1.2359593e-08 4.70252900e+03 7.81860800e-03 7.87610800e-02
        2 -1    0    0  501    0 +0.0000000000e+00 +0.0000000000e+00 +1.9151148774e+03 1.9151148774e+03 2.5500000000e-03 0.0000e+00 1.0000e+00
       -2 -1    0    0    0  501 -0.0000000000e+00 -0.0000000000e+00 -2.8867435776e+03 2.8867435776e+03 2.5500000000e-03 0.0000e+00 -1.0000e+00
  1000011  2    1    2    0    0 +3.7471713501e+02 +5.0068599255e+02 -2.0730244525e+02 2.3445762647e+03 2.2501031449e+03 4.5219e+02 0.0000e+00
 -1000011  2    1    2    0    0 -3.7471713501e+02 -5.0068599255e+02 -7.6432625494e+02 2.4572821903e+03 2.2500981633e+03 1.7002e+02 0.0000e+00
       11  1    3    3    0    0 -3.6296077861e-02 +3.4548902565e-02 +7.9026528404e-02 9.3576091689e-02 5.1100000000e-04 0.0000e+00 1.0000e+00
  1000022  1    3    3    0    0 +3.7475343109e+02 +5.0065144365e+02 -2.0738147178e+02 2.3444826886e+03 2.2500000000e+03 0.0000e+00 0.0000e+00
      -11  1    4    4    0    0 -1.0921202073e-01 -1.6303258823e-02 -7.3804367983e-02 1.3281719378e-01 5.1100000000e-04 0.0000e+00 -1.0000e+00
  1000022  1    4    4    0    0 -3.7460792299e+02 -5.0066968929e+02 -7.6425245058e+02 2.4571493731e+03 2.2500000000e+03 0.0000e+00 0.0000e+00
<mgrwt>
<rscale>  0 0.47025294E+04</rscale>
<asrwt>0</asrwt>
<pdfrwt beam="1">  1        2 0.29463306E+00 0.47025294E+04</pdfrwt>
<pdfrwt beam="2">  1       -2 0.44411440E+00 0.47025294E+04</pdfrwt>
<totfact> 0.21112341E-02</totfact>
</mgrwt>
</event>
<event>
 8      1 +1.2359593e-08 5.46354300e+03 7.81860800e-03 7.76072600e-02
       -2 -1    0    0    0  501 -0.0000000000e+00 +0.0000000000e+00 +2.3385472504e+03 2.3385472504e+03 2.5500000000e-03 0.0000e+00 -1.0000e+00
        2 -1    0    0  501    0 +0.0000000000e+00 -0.0000000000e+00 -3.1911154839e+03 3.1911154839e+03 2.5500000000e-03 0.0000e+00 1.0000e+00
  1000011  2    1    2    0    0 +2.0373244504e+02 -1.4992942299e+03 -9.0238808428e+01 2.7130216032e+03 2.2501006822e+03 2.7018e+02 0.0000e+00
 -1000011  2    1    2    0    0 -2.0373244504e+02 +1.4992942299e+03 -7.6232942508e+02 2.8166411310e+03 2.2500957783e+03 1.2287e+03 0.0000e+00
       11  1    3    3    0    0 +9.2399542266e-02 -2.2496271682e-02 -4.2821197854e-02 1.0429608445e-01 5.1100000000e-04 0.0000e+00 1.0000e+00
  1000022  1    3    3    0    0 +2.0364004550e+02 -1.4992717336e+03 -9.0195987230e+01 2.7129173071e+03 2.2500000000e+03 0.0000e+00 0.0000e+00
      -11  1    4    4    0    0 -6.2839295907e-02 +4.6128680136e-02 +4.9340374537e-02 9.2257061706e-02 5.1100000000e-04 0.0000e+00 -1.0000e+00
  1000022  1    4    4    0    0 -2.0366960575e+02 +1.4992481012e+03 -7.6237876546e+02 2.8165488739e+03 2.2500000000e+03 0.0000e+00 0.0000e+00
<mgrwt>
<rscale>  0 0.54635426E+04</rscale>
<asrwt>0</asrwt>
<pdfrwt beam="1">  1        2 0.49094084E+00 0.54635426E+04</pdfrwt>
<pdfrwt beam="2">  1       -2 0.35977650E+00 0.54635426E+04</pdfrwt>
<totfact> 0.12434790E-02</totfact>
</mgrwt>
</event>
<event>
 8      1 +1.2359593e-08 4.62864500e+03 7.81860800e-03 7.88849400e-02
       -2 -1    0    0    0  501 -0.0000000000e+00 +0.0000000000e+00 +2.0160079911e+03 2.0160079911e+03 2.5500000000e-03 0.0000e+00 1.0000e+00
        2 -1    0    0  501    0 +0.0000000000e+00 -0.0000000000e+00 -2.6567793532e+03 2.6567793532e+03 2.5500000000e-03 0.0000e+00 -1.0000e+00
  1000011  2    1    2    0    0 +2.9532083060e+02 +1.9924311031e+02 +9.1215209816e+01 2.2799512064e+03 2.2500989043e+03 5.0771e+02 0.0000e+00
 -1000011  2    1    2    0    0 -2.9532083060e+02 -1.9924311031e+02 -7.3198657197e+02 2.3928361379e+03 2.2500996047e+03 9.4113e+01 0.0000e+00
       11  1    3    3    0    0 -2.4689204894e-02 +4.7196820127e-02 +8.7003389480e-02 1.0201444533e-01 5.1100000000e-04 0.0000e+00 1.0000e+00
  1000022  1    3    3    0    0 +2.9534551980e+02 +1.9919591349e+02 +9.1128206426e+01 2.2798491919e+03 2.2500000000e+03 0.0000e+00 0.0000e+00
      -11  1    4    4    0    0 +5.9115863771e-02 +4.5652016142e-02 -7.4145510204e-02 1.0524547143e-01 5.1100000000e-04 0.0000e+00 -1.0000e+00
  1000022  1    4    4    0    0 -2.9537994646e+02 -1.9928876232e+02 -7.3191242646e+02 2.3927308924e+03 2.2500000000e+03 0.0000e+00 0.0000e+00
<mgrwt>
<rscale>  0 0.46286449E+04</rscale>
<asrwt>0</asrwt>
<pdfrwt beam="1">  1        2 0.40873529E+00 0.46286449E+04</pdfrwt>
<pdfrwt beam="2">  1       -2 0.31015508E+00 0.46286449E+04</pdfrwt>
<totfact> 0.58166807E-02</totfact>
</mgrwt>
</event>
<event>
 8      1 +1.2359593e-08 5.28139800e+03 7.81860800e-03 7.78650700e-02
       -1 -1    0    0    0  501 -0.0000000000e+00 +0.0000000000e+00 +2.5122934387e+03 2.5122934387e+03 5.0400000000e-03 0.0000e+00 -1.0000e+00
        1 -1    0    0  501    0 +0.0000000000e+00 -0.0000000000e+00 -2.7756679046e+03 2.7756679046e+03 5.0400000000e-03 0.0000e+00 1.0000e+00
  1000011  2    1    2    0    0 -1.0101365544e+03 -3.0041775181e+02 +7.6368897635e+02 2.5993860786e+03 2.2501023196e+03 1.3605e+03 0.0000e+00
 -1000011  2    1    2    0    0 +1.0101365544e+03 +3.0041775181e+02 -1.0270634423e+03 2.6885752647e+03 2.2501002101e+03 2.9690e+02 0.0000e+00
       11  1    3    3    0    0 -3.8812937425e-02 +2.1003192663e-02 -6.8158232934e-02 8.1199653251e-02 5.1100000000e-04 0.0000e+00 1.0000e+00
  1000022  1    3    3    0    0 -1.0100977415e+03 -3.0043875500e+02 +7.6375713459e+02 2.5993048789e+03 2.2500000000e+03 0.0000e+00 0.0000e+00
      -11  1    4    4    0    0 +1.0389344274e-01 +3.5745581862e-02 -1.4586473608e-01 1.8261537720e-01 5.1100000000e-04 0.0000e+00 -1.0000e+00
  1000022  1    4    4    0    0 +1.0100326610e+03 +3.0038200623e+02 -1.0269175776e+03 2.6883926494e+03 2.2500000000e+03 0.0000e+00 0.0000e+00
<mgrwt>
<rscale>  0 0.52813984E+04</rscale>
<asrwt>0</asrwt>
<pdfrwt beam="1">  1        1 0.42702583E+00 0.52813984E+04</pdfrwt>
<pdfrwt beam="2">  1       -1 0.38650668E+00 0.52813984E+04</pdfrwt>
<totfact> 0.54164225E-03</totfact>
</mgrwt>
</event>
<event>
 8      1 +1.2359593e-08 4.96616300e+03 7.81860800e-03 7.83374800e-02
        2 -1    0    0  501    0 +0.0000000000e+00 +0.0000000000e+00 +2.0401807643e+03 2.0401807643e+03 2.5500000000e-03 0.0000e+00 1.0000e+00
       -2 -1    0    0    0  501 -0.0000000000e+00 -0.0000000000e+00 -3.0221305568e+03 3.0221305568e+03 2.5500000000e-03 0.0000e+00 -1.0000e+00
  1000011  2    1    2    0    0 +3.2945129217e+02 +2.9193123097e+02 -1.4628482624e+03 2.7196684966e+03 2.2500910415e+03 1.8144e+02 0.0000e+00
 -1000011  2    1    2    0    0 -3.2945129217e+02 -2.9193123097e+02 +4.8089846980e+02 2.3426428245e+03 2.2501000127e+03 6.2127e+02 0.0000e+00
       11  1    3    3    0    0 -7.1851985277e-02 -2.2538768051e-02 -6.2012864009e-02 9.7552858279e-02 5.1100000000e-04 0.0000e+00 1.0000e+00
  1000022  1    3    3    0    0 +3.2952314416e+02 +2.9195376974e+02 -1.4627862495e+03 2.7195709437e+03 2.2500000000e+03 0.0000e+00 0.0000e+00
      -11  1    4    4    0    0 -1.9160988897e-02 +8.7399087938e-02 +1.1353703277e-02 9.0193744396e-02 5.1100000000e-04 0.0000e+00 -1.0000e+00
  1000022  1    4    4    0    0 -3.2943213118e+02 -2.9201863006e+02 +4.8088711610e+02 2.3425526307e+03 2.2500000000e+03 0.0000e+00 0.0000e+00
<mgrwt>
<rscale>  0 0.49661626E+04</rscale>
<asrwt>0</asrwt>
<pdfrwt beam="1">  1        2 0.31387396E+00 0.49661626E+04</pdfrwt>
<pdfrwt beam="2">  1       -2 0.46494316E+00 0.49661626E+04</pdfrwt>
<totfact> 0.12863769E-02</totfact>
</mgrwt>
</event>
<event>
 8      1 +1.2359593e-08 5.35277500e+03 7.81860800e-03 7.77627900e-02
        2 -1    0    0  501    0 +0.0000000000e+00 +0.0000000000e+00 +1.5032974125e+03 1.5032974125e+03 2.5500000000e-03 0.0000e+00 1.0000e+00
       -2 -1    0    0    0  501 -0.0000000000e+00 -0.0000000000e+00 -4.7648917106e+03 4.7648917106e+03 2.5500000000e-03 0.0000e+00 -1.0000e+00
  1000011  2    1    2    0    0 +1.3002553729e+03 +2.7997625432e+02 -9.5701825947e+02 2.7834983794e+03 2.2500952295e+03 5.9704e+02 0.0000e+00
 -1000011  2    1    2    0    0 -1.3002553729e+03 -2.7997625432e+02 -2.3045760387e+03 3.4846907437e+03 2.2500995808e+03 1.9467e+01 0.0000e+00
       11  1    3    3    0    0 +1.4597865694e-01 +2.1806256918e-02 -6.9091554629e-04 1.4760087830e-01 5.1100000000e-04 0.0000e+00 1.0000e+00
  1000022  1    3    3    0    0 +1.3001093942e+03 +2.7995444806e+02 -9.5701756856e+02 2.7833507786e+03 2.2500000000e+03 0.0000e+00 0.0000e+00
      -11  1    4    4    0    0 +4.6362625410e-02 -4.8467974280e-02 -4.6175224189e-02 8.1431255241e-02 5.1100000000e-04 0.0000e+00 -1.0000e+00
  1000022  1    4    4    0    0 -1.3003017355e+03 -2.7992778634e+02 -2.3045298634e+03 3.4846093125e+03 2.2500000000e+03 0.0000e+00 0.0000e+00
<mgrwt>
<rscale>  0 0.53527747E+04</rscale>
<asrwt>0</asrwt>
<pdfrwt beam="1">  1        2 0.23127653E+00 0.53527747E+04</pdfrwt>
<pdfrwt beam="2">  1       -2 0.73306025E+00 0.53527747E+04</pdfrwt>
<totfact> 0.15342053E-03</totfact>
</mgrwt>
</event>
<event>
 8      1 +1.2359593e-08 5.47422700e+03 7.81860800e-03 7.75924500e-02
       -2 -1    0    0    0  501 -0.0000000000e+00 +0.0000000000e+00 +1.6539035693e+03 1.6539035693e+03 2.5500000000e-03 0.0000e+00 -1.0000e+00
        2 -1    0    0  501    0 +0.0000000000e+00 -0.0000000000e+00 -4.5297629021e+03 4.5297629021e+03 2.5500000000e-03 0.0000e+00 1.0000e+00
  1000011  2    1    2    0    0 -2.2683236313e+02 +1.1455038063e+03 -2.6037743720e+03 3.6340369860e+03 2.2501004297e+03 1.0716e+03 0.0000e+00
 -1000011  2    1    2    0    0 +2.2683236313e+02 -1.1455038063e+03 -2.7208496084e+02 2.5496294854e+03 2.2500996413e+03 5.3591e+03 0.0000e+00
       11  1    3    3    0    0 -7.1855672643e-02 -3.3397292177e-02 -6.2504964818e-02 1.0092446785e-01 5.1100000000e-04 0.0000e+00 1.0000e+00
  1000022  1    3    3    0    0 -2.2676050746e+02 +1.1455372036e+03 -2.6037118671e+03 3.6339360615e+03 2.2500000000e+03 0.0000e+00 0.0000e+00
      -11  1    4    4    0    0 -8.3332527053e-02 -2.3218960389e-02 -3.9717018629e-02 9.5189980736e-02 5.1100000000e-04 0.0000e+00 -1.0000e+00
  1000022  1    4    4    0    0 +2.2691569566e+02 -1.1454805873e+03 -2.7204524383e+02 2.5495342954e+03 2.2500000000e+03 0.0000e+00 0.0000e+00
<mgrwt>
<rscale>  0 0.54742273E+04</rscale>
<asrwt>0</asrwt>
<pdfrwt beam="1">  1        2 0.69688660E+00 0.54742273E+04</pdfrwt>
<pdfrwt beam="2">  1       -2 0.25444670E+00 0.54742273E+04</pdfrwt>
<totfact> 0.48132722E-03</totfact>
</mgrwt>
</event>
<event>
 8      1 +1.2359593e-08 4.64900200e+03 7.81860800e-03 7.88505800e-02
        1 -1    0    0  501    0 +0.0000000000e+00 +0.0000000000e+00 +3.5569483588e+03 3.5569483588e+03 5.0400000000e-03 0.0000e+00 1.0000e+00
       -1 -1    0    0    0  501 -0.0000000000e+00 -0.0000000000e+00 -1.5190843709e+03 1.5190843709e+03 5.0400000000e-03 0.0000e+00 -1.0000e+00
  1000011  2    1    2    0    0 +3.3353529717e+02 -4.5186674393e+02 +8.4655021835e+02 2.4688107613e+03 2.2500999876e+03 5.3076e+00 0.0000e+00
 -1000011  2    1    2    0    0 -3.3353529717e+02 +4.5186674393e+02 +1.1913137696e+03 2.6072219683e+03 2.2500996746e+03 4.7845e+02 0.0000e+00
       11  1    3    3    0    0 +8.1507278118e-02 +5.1592903357e-02 +5.8146907447e-02 1.1263475242e-01 5.1100000000e-04 0.0000e+00 1.0000e+00
  1000022  1    3    3    0    0 +3.3345378989e+02 -4.5191833683e+02 +8.4649207144e+02 2.4686981266e+03 2.2500000000e+03 0.0000e+00 0.0000e+00
      -11  1    4    4    0    0 -8.9519341347e-02 +7.4945408188e-02 +1.1136258072e-01 1.6134562857e-01 5.1100000000e-04 0.0000e+00 -1.0000e+00
  1000022  1    4    4    0    0 -3.3344577783e+02 +4.5179179852e+02 +1.1912024070e+03 2.6070606227e+03 2.2500000000e+03 0.0000e+00 0.0000e+00
<mgrwt>
<rscale>  0 0.46490019E+04</rscale>
<asrwt>0</asrwt>
<pdfrwt beam="1">  1        1 0.54722282E+00 0.46490019E+04</pdfrwt>
<pdfrwt beam="2">  1       -1 0.23370529E+00 0.46490019E+04</pdfrwt>
<totfact> 0.14892570E-02</totfact>
</mgrwt>
</event>
<event>
 8      1 +1.2359593e-08 4.55225700e+03 7.81860800e-03 7.90155200e-02
        2 -1    0    0  501    0 +0.0000000000e+00 +0.0000000000e+00 +2.0176966038e+03 2.0176966038e+03 2.5500000000e-03 0.0000e+00 1.0000e+00
       -2 -1    0    0    0  501 -0.0000000000e+00 -0.0000000000e+00 -2.5676608820e+03 2.5676608820e+03 2.5500000000e-03 0.0000e+00 -1.0000e+00
  1000011  2    1    2    0    0 -2.7372102354e+02 +2.0632925328e+02 -2.9274544066e+02 2.2948088199e+03 2.2501005905e+03 5.8747e+02 0.0000e+00
 -1000011  2    1    2    0    0 +2.7372102354e+02 -2.0632925328e+02 -2.5721883750e+02 2.2905486659e+03 2.2501014868e+03 2.3046e+02 0.0000e+00
       11  1    3    3    0    0 -2.5536960822e-04 +3.9559320204e-02 +8.2689904787e-02 9.1667258529e-02 5.1100000000e-04 0.0000e+00 1.0000e+00
  1000022  1    3    3    0    0 -2.7372076817e+02 +2.0628969396e+02 -2.9282813056e+02 2.2947171527e+03 2.2500000000e+03 0.0000e+00 0.0000e+00
      -11  1    4    4    0    0 +9.6295088009e-02 -2.8039316954e-04 -7.0073500335e-02 1.1909399258e-01 5.1100000000e-04 0.0000e+00 -1.0000e+00
  1000022  1    4    4    0    0 +2.7362472845e+02 -2.0632897288e+02 -2.5714876400e+02 2.2904295719e+03 2.2500000000e+03 0.0000e+00 0.0000e+00
<mgrwt>
<rscale>  0 0.45522569E+04</rscale>
<asrwt>0</asrwt>
<pdfrwt beam="1">  1        2 0.31041486E+00 0.45522569E+04</pdfrwt>
<pdfrwt beam="2">  1       -2 0.39502475E+00 0.45522569E+04</pdfrwt>
<totfact> 0.39425858E-02</totfact>
</mgrwt>
</event>
<event>
 8      1 +1.2359593e-08 4.85321300e+03 7.81860800e-03 7.85155800e-02
        2 -1    0    0  501    0 +0.0000000000e+00 +0.0000000000e+00 +5.4961908595e+03 5.4961908595e+03 2.5500000000e-03 0.0000e+00 1.0000e+00
       -2 -1    0    0    0  501 -0.0000000000e+00 -0.0000000000e+00 -1.0713637140e+03 1.0713637140e+03 2.5500000000e-03 0.0000e+00 -1.0000e+00
  1000011  2    1    2    0    0 +1.6800266116e+02 +1.6454621882e+01 +3.4204982704e+03 4.0977128440e+03 2.2500992167e+03 6.8936e+02 0.0000e+00
 -1000011  2    1    2    0    0 -1.6800266116e+02 -1.6454621882e+01 +1.0043288751e+03 2.4698417295e+03 2.2500991157e+03 3.6958e+02 0.0000e+00
       11  1    3    3    0    0 +2.4211943609e-02 -1.3875200149e-02 +3.2814826918e-01 3.2933309401e-01 5.1100000000e-04 0.0000e+00 1.0000e+00
  1000022  1    3    3    0    0 +1.6797844922e+02 +1.6468497082e+01 +3.4201701222e+03 4.0973835109e+03 2.2500000000e+03 0.0000e+00 0.0000e+00
      -11  1    4    4    0    0 -8.2445985641e-02 +5.8188363623e-02 +1.6614199250e-02 1.0227178767e-01 5.1100000000e-04 0.0000e+00 -1.0000e+00
  1000022  1    4    4    0    0 -1.6792021518e+02 -1.6512810246e+01 +1.0043122609e+03 2.4697394577e+03 2.2500000000e+03 0.0000e+00 0.0000e+00
<mgrwt>
<rscale>  0 0.48532131E+04</rscale>
<asrwt>0</asrwt>
<pdfrwt beam="1">  1        2 0.84556780E+00 0.48532131E+04</pdfrwt>
<pdfrwt beam="2">  1       -2 0.16482519E+00 0.48532131E+04</pdfrwt>
<totfact> 0.10119242E-03</totfact>
</mgrwt>
</event>
<event>
 8      1 +1.2359593e-08 4.85561200e+03 7.81860800e-03 7.85117500e-02
       -2 -1    0    0    0  501 -0.0000000000e+00 +0.0000000000e+00 +1.8945434378e+03 1.8945434378e+03 2.5500000000e-03 0.0000e+00 -1.0000e+00
        2 -1    0    0  501    0 +0.0000000000e+00 -0.0000000000e+00 -3.1111677477e+03 3.1111677477e+03 2.5500000000e-03 0.0000e+00 1.0000e+00
  1000011  2    1    2    0    0 -4.2957138704e+02 +2.9706226740e+02 +1.6212964676e+02 2.3156015208e+03 2.2500992897e+03 1.7695e+03 0.0000e+00
 -1000011  2    1    2    0    0 +4.2957138704e+02 -2.9706226740e+02 -1.3787539567e+03 2.6901096646e+03 2.2500999905e+03 6.4410e+02 0.0000e+00
       11  1    3    3    0    0 +2.9127523910e-02 +6.5992618485e-02 +7.6119984432e-02 1.0487111685e-01 5.1100000000e-04 0.0000e+00 1.0000e+00
  1000022  1    3    3    0    0 -4.2960051457e+02 +2.9699627478e+02 +1.6205352678e+02 2.3154966497e+03 2.2500000000e+03 0.0000e+00 0.0000e+00
      -11  1    4    4    0    0 -5.1993268876e-02 -1.1981397876e-02 +3.0064477634e-02 6.1245305852e-02 5.1100000000e-04 0.0000e+00 -1.0000e+00
  1000022  1    4    4    0    0 +4.2962338031e+02 -2.9705028600e+02 -1.3787840212e+03 2.6900484193e+03 2.2500000000e+03 0.0000e+00 0.0000e+00
<mgrwt>
<rscale>  0 0.48556122E+04</rscale>
<asrwt>0</asrwt>
<pdfrwt beam="1">  1        2 0.47864119E+00 0.48556122E+04</pdfrwt>
<pdfrwt beam="2">  1       -2 0.29146822E+00 0.48556122E+04</pdfrwt>
<totfact> 0.39041407E-02</totfact>
</mgrwt>
</event>
<event>
 8      1 +1.2359593e-08 5.32522400e+03 7.81860800e-03 7.78020700e-02
       -2 -1    0    0    0  501 -0.0000000000e+00 +0.0000000000e+00 +1.6062874912e+03 1.6062874912e+03 2.5500000000e-03 0.0000e+00 -1.0000e+00
        2 -1    0    0  501    0 +0.0000000000e+00 -0.0000000000e+00 -4.4135943594e+03 4.4135943595e+03 2.5500000000e-03 0.0000e+00 1.0000e+00
  1000011  2    1    2    0    0 -4.3025350237e+02 +5.3102265552e+02 -2.8153318682e+03 3.6682623035e+03 2.2501003672e+03 9.2877e+02 0.0000e+00
 -1000011  2    1    2    0    0 +4.3025350237e+02 -5.3102265552e+02 +8.0249999718e+00 2.3516195472e+03 2.2500993216e+03 1.6841e+03 0.0000e+00
       11  1    3    3    0    0 +7.7343593653e-02 +3.0786731331e-02 -5.7986217596e-02 1.0145204206e-01 5.1100000000e-04 0.0000e+00 1.0000e+00
  1000022  1    3    3    0    0 -4.3033084597e+02 +5.3099186878e+02 -2.8152738820e+03 3.6681608515e+03 2.2500000000e+03 0.0000e+00 0.0000e+00
      -11  1    4    4    0    0 +1.5440727321e-02 -1.2267948847e-02 +9.9018873723e-02 1.0096492896e-01 5.1100000000e-04 0.0000e+00 -1.0000e+00
  1000022  1    4    4    0    0 +4.3023806165e+02 -5.3101038757e+02 +7.9259810981e+00 2.3515185822e+03 2.2500000000e+03 0.0000e+00 0.0000e+00
<mgrwt>
<rscale>  0 0.53252235E+04</rscale>
<asrwt>0</asrwt>
<pdfrwt beam="1">  1        2 0.67901451E+00 0.53252235E+04</pdfrwt>
<pdfrwt beam="2">  1       -2 0.24712115E+00 0.53252235E+04</pdfrwt>
<totfact> 0.70125784E-03</totfact>
</mgrwt>
</event>
<event>
 8      1 +1.2359593e-08 4.94730900e+03 7.81860800e-03 7.83668700e-02
        2 -1    0    0  501    0 +0.0000000000e+00 +0.0000000000e+00 +3.2186219694e+03 3.2186219694e+03 2.5500000000e-03 0.0000e+00 1.0000e+00
       -2 -1    0    0    0  501 -0.0000000000e+00 -0.0000000000e+00 -1.9011139784e+03 1.9011139784e+03 2.5500000000e-03 0.0000e+00 -1.0000e+00
  1000011  2    1    2    0    0 -7.0139640305e+02 -7.3477225616e+02 +4.9781770849e+02 2.5184508575e+03 2.2500944576e+03 5.5618e+02 0.0000e+00
 -1000011  2    1    2    0    0 +7.0139640305e+02 +7.3477225616e+02 +8.1969028253e+02 2.6012850903e+03 2.2500988376e+03 2.3394e+03 0.0000e+00
       11  1    3    3    0    0 -3.1720381156e-02 +6.6431183690e-02 -1.1005536279e-03 7.3625788115e-02 5.1100000000e-04 0.0000e+00 1.0000e+00
  1000022  1    3    3    0    0 -7.0136468267e+02 -7.3483868734e+02 +4.9781880905e+02 2.5183772317e+03 2.2500000000e+03 0.0000e+00 0.0000e+00
      -11  1    4    4    0    0 -6.5729765707e-02 +5.9353724679e-02 +1.9559012364e-02 9.0697752006e-02 5.1100000000e-04 0.0000e+00 -1.0000e+00
  1000022  1    4    4    0    0 +7.0146213281e+02 +7.3471290244e+02 +8.1967072352e+02 2.6011943925e+03 2.2500000000e+03 0.0000e+00 0.0000e+00
<mgrwt>
<rscale>  0 0.49473093E+04</rscale>
<asrwt>0</asrwt>
<pdfrwt beam="1">  1        2 0.49517260E+00 0.49473093E+04</pdfrwt>
<pdfrwt beam="2">  1       -2 0.29247908E+00 0.49473093E+04</pdfrwt>
<totfact> 0.32538871E-02</totfact>
</mgrwt>
</event>
<event>
 8      1 +1.2359593e-08 4.68296300e+03 7.81860800e-03 7.87936500e-02
        2 -1    0    0  501    0 +0.0000000000e+00 +0.0000000000e+00 +4.1635122250e+03 4.1635122250e+03 2.5500000000e-03 0.0000e+00 1.0000e+00
       -2 -1    0    0    0  501 -0.0000000000e+00 -0.0000000000e+00 -1.3168056587e+03 1.3168056587e+03 2.5500000000e-03 0.0000e+00 -1.0000e+00
  1000011  2    1    2    0    0 +6.4507439969e+02 +2.9748130525e-01 +1.3543628868e+03 2.7043215171e+03 2.2500966578e+03 9.5014e+02 0.0000e+00
 -1000011  2    1    2    0    0 -6.4507439969e+02 -2.9748130525e-01 +1.4923436796e+03 2.7759963665e+03 2.2500989088e+03 6.7085e+02 0.0000e+00
       11  1    3    3    0    0 -2.6952286600e-02 -5.3374607332e-02 +1.2002806286e-01 1.3409798983e-01 5.1100000000e-04 0.0000e+00 1.0000e+00
  1000022  1    3    3    0    0 +6.4510135198e+02 +3.5085591259e-01 +1.3542428587e+03 2.7041874191e+03 2.2500000000e+03 0.0000e+00 0.0000e+00
      -11  1    4    4    0    0 +3.3911507476e-02 -2.3039549603e-02 -3.4635391031e-02 5.3671985611e-02 5.1100000000e-04 0.0000e+00 -1.0000e+00
  1000022  1    4    4    0    0 -6.4510831120e+02 -2.7444175565e-01 +1.4923783150e+03 2.7759426946e+03 2.2500000000e+03 0.0000e+00 0.0000e+00
<mgrwt>
<rscale>  0 0.46829634E+04</rscale>
<asrwt>0</asrwt>
<pdfrwt beam="1">  1        2 0.64054034E+00 0.46829634E+04</pdfrwt>
<pdfrwt beam="2">  1       -2 0.20258549E+00 0.46829634E+04</pdfrwt>
<totfact> 0.23741353E-02</totfact>
</mgrwt>
</event>
<event>
 8      1 +1.2359593e-08 4.88870000e+03 7.81860800e-03 7.84590900e-02
       -2 -1    0    0    0  501 -0.0000000000e+00 +0.0000000000e+00 +2.7707342924e+03 2.7707342924e+03 2.5500000000e-03 0.0000e+00 -1.0000e+00
        2 -1    0    0  501    0 +0.0000000000e+00 -0.0000000000e+00 -2.1564129729e+03 2.1564129729e+03 2.5500000000e-03 0.0000e+00 1.0000e+00
  1000011  2    1    2    0    0 +1.9185908688e+02 -4.6384685846e+02 +1.1259111358e+03 2.5656557659e+03 2.2500999547e+03 2.4501e+01 0.0000e+00
 -1000011  2    1    2    0    0 -1.9185908688e+02 +4.6384685846e+02 -5.1158981633e+02 2.3614914994e+03 2.2501009187e+03 7.1996e+02 0.0000e+00
       11  1    3    3    0    0 -4.0070984480e-02 -9.9209868195e-02 +1.1405460714e-02 1.0760403000e-01 5.1100000000e-04 0.0000e+00 1.0000e+00
  1000022  1    3    3    0    0 +1.9189915787e+02 -4.6374764859e+02 +1.1258997303e+03 2.5655481619e+03 2.2500000000e+03 0.0000e+00 0.0000e+00
      -11  1    4    4    0    0 +8.0156249137e-02 -2.6289673176e-02 -3.8956592061e-02 9.2919579303e-02 5.1100000000e-04 0.0000e+00 -1.0000e+00
  1000022  1    4    4    0    0 -1.9193924313e+02 +4.6387314813e+02 -5.1155085974e+02 2.3613985798e+03 2.2500000000e+03 0.0000e+00 0.0000e+00
<mgrwt>
<rscale>  0 0.48887002E+04</rscale>
<asrwt>0</asrwt>
<pdfrwt beam="1">  1        2 0.33175584E+00 0.48887002E+04</pdfrwt>
<pdfrwt beam="2">  1       -2 0.42626682E+00 0.48887002E+04</pdfrwt>
<totfact> 0.20026945E-02</totfact>
</mgrwt>
</event>
<event>
 8      1 +1.2359593e-08 4.92628900e+03 7.81860800e-03 7.83998000e-02
        2 -1    0    0  501    0 +0.0000000000e+00 +0.0000000000e+00 +4.0378661546e+03 4.0378661546e+03 2.5500000000e-03 0.0000e+00 1.0000e+00
       -2 -1    0    0    0  501 -0.0000000000e+00 -0.0000000000e+00 -1.5025460140e+03 1.5025460140e+03 2.5500000000e-03 0.0000e+00 -1.0000e+00
  1000011  2    1    2    0    0 -4.6914769823e+02 -6.1592166385e+02 +1.9830996856e+03 3.0975938451e+03 2.2500987107e+03 4.4908e+02 0.0000e+00
 -1000011  2    1    2    0    0 +4.6914769823e+02 +6.1592166385e+02 +5.5222045504e+02 2.4428183234e+03 2.2501010803e+03 7.7801e+02 0.0000e+00
       11  1    3    3    0    0 +4.6242463359e-02 -8.8792459216e-03 +1.6658491388e-01 1.7311268165e-01 5.1100000000e-04 0.0000e+00 1.0000e+00
  1000022  1    3    3    0    0 -4.6919394069e+02 -6.1591278460e+02 +1.9829331007e+03 3.0974207325e+03 2.2500000000e+03 0.0000e+00 0.0000e+00
      -11  1    4    4    0    0 +1.0584156599e-01 +6.5330284554e-02 -1.8422763794e-02 1.2573838837e-01 5.1100000000e-04 0.0000e+00 -1.0000e+00
  1000022  1    4    4    0    0 +4.6904185666e+02 +6.1585633356e+02 +5.5223887780e+02 2.4426925850e+03 2.2500000000e+03 0.0000e+00 0.0000e+00
<mgrwt>
<rscale>  0 0.49262885E+04</rscale>
<asrwt>0</asrwt>
<pdfrwt beam="1">  1        2 0.62121018E+00 0.49262885E+04</pdfrwt>
<pdfrwt beam="2">  1       -2 0.23116092E+00 0.49262885E+04</pdfrwt>
<totfact> 0.19523863E-02</totfact>
</mgrwt>
</event>
<event>
 8      1 +1.2359593e-08 5.00580500e+03 7.81860800e-03 7.82761200e-02
        2 -1    0    0  501    0 +0.0000000000e+00 +0.0000000000e+00 +4.5623134323e+03 4.5623134323e+03 2.5500000000e-03 0.0000e+00 1.0000e+00
       -2 -1    0    0    0  501 -0.0000000000e+00 -0.0000000000e+00 -1.3731019494e+03 1.3731019494e+03 2.5500000000e-03 0.0000e+00 -1.0000e+00
  1000011  2    1    2    0    0 +3.3536105052e+02 -1.0299230600e+03 +1.7943181546e+03 3.0750148168e+03 2.2500955401e+03 1.7579e+02 0.0000e+00
 -1000011  2    1    2    0    0 -3.3536105052e+02 +1.0299230600e+03 +1.3948933284e+03 2.8604005650e+03 2.2501012090e+03 2.4344e+02 0.0000e+00
       11  1    3    3    0    0 -4.2318844879e-02 -9.7851902228e-02 +1.5659912063e-01 1.8944504395e-01 5.1100000000e-04 0.0000e+00 1.0000e+00
  1000022  1    3    3    0    0 +3.3540336937e+02 -1.0298252081e+03 +1.7941615555e+03 3.0748253717e+03 2.2500000000e+03 0.0000e+00 0.0000e+00
      -11  1    4    4    0    0 -3.2475391991e-02 -4.5123480898e-02 +1.0390237054e-01 1.1784202595e-01 5.1100000000e-04 0.0000e+00 -1.0000e+00
  1000022  1    4    4    0    0 -3.3532857513e+02 +1.0299681835e+03 +1.3947894260e+03 2.8602827230e+03 2.2500000000e+03 0.0000e+00 0.0000e+00
<mgrwt>
<rscale>  0 0.50058052E+04</rscale>
<asrwt>0</asrwt>
<pdfrwt beam="1">  1        2 0.70189437E+00 0.50058052E+04</pdfrwt>
<pdfrwt beam="2">  1       -2 0.21124645E+00 0.50058052E+04</pdfrwt>
<totfact> 0.86387562E-03</totfact>
</mgrwt>
</event>
<event>
 8      1 +1.2359593e-08 4.95165600e+03 7.81860800e-03 7.83600800e-02
        2 -1    0    0  501    0 +0.0000000000e+00 +0.0000000000e+00 +2.3145734568e+03 2.3145734568e+03 2.5500000000e-03 0.0000e+00 1.0000e+00
       -2 -1    0    0    0  501 -0.0000000000e+00 -0.0000000000e+00 -2.6483166108e+03 2.6483166108e+03 2.5500000000e-03 0.0000e+00 -1.0000e+00
  1000011  2    1    2    0    0 -4.8981573525e+02 -1.2286542185e+02 +7.3614996696e+02 2.4207193529e+03 2.2501000078e+03 2.0849e+03 0.0000e+00
 -1000011  2    1    2    0    0 +4.8981573525e+02 +1.2286542185e+02 -1.0698931210e+03 2.5421707148e+03 2.2500989503e+03 3.0984e+02 0.0000e+00
       11  1    3    3    0    0 +8.0220463894e-03 +7.4224988431e-02 +8.5630385906e-02 1.1360689100e-01 5.1100000000e-04 0.0000e+00 1.0000e+00
  1000022  1    3    3    0    0 -4.8982375730e+02 -1.2293964684e+02 +7.3606433657e+02 2.4206057460e+03 2.2500000000e+03 0.0000e+00 0.0000e+00
      -11  1    4    4    0    0 +5.9340193191e-02 -2.6608477319e-02 -1.4466428260e-01 1.5861048221e-01 5.1100000000e-04 0.0000e+00 -1.0000e+00
  1000022  1    4    4    0    0 +4.8975639506e+02 +1.2289203033e+02 -1.0697484567e+03 2.5420121043e+03 2.2500000000e+03 0.0000e+00 0.0000e+00
<mgrwt>
<rscale>  0 0.49516556E+04</rscale>
<asrwt>0</asrwt>
<pdfrwt beam="1">  1        2 0.35608822E+00 0.49516556E+04</pdfrwt>
<pdfrwt beam="2">  1       -2 0.40743333E+00 0.49516556E+04</pdfrwt>
<totfact> 0.21584992E-02</totfact>
</mgrwt>
</event>
<event>
 8      1 +1.2359593e-08 4.70274900e+03 7.81860800e-03 7.87607200e-02
       -2 -1    0    0    0  501 -0.0000000000e+00 +0.0000000000e+00 +2.6820883231e+03 2.6820883232e+03 2.5500000000e-03 0.0000e+00 -1.0000e+00
        2 -1    0    0  501    0 +0.0000000000e+00 -0.0000000000e+00 -2.0614390737e+03 2.0614390737e+03 2.5500000000e-03 0.0000e+00 1.0000e+00
  1000011  2    1    2    0    0 -4.3481087621e+02 +2.2192952510e+02 -1.7099380351e+02 2.3087876339e+03 2.2500996079e+03 3.7555e+02 0.0000e+00
 -1000011  2    1    2    0    0 +4.3481087621e+02 -2.2192952510e+02 +7.9164305297e+02 2.4347397629e+03 2.2500990595e+03 6.4213e+02 0.0000e+00
       11  1    3    3    0    0 -1.1756822681e-01 +3.1090116514e-02 -2.4207921555e-02 1.2399664453e-01 5.1100000000e-04 0.0000e+00 1.0000e+00
  1000022  1    3    3    0    0 -4.3469330798e+02 +2.2189843498e+02 -1.7096959558e+02 2.3086636373e+03 2.2500000000e+03 0.0000e+00 0.0000e+00
      -11  1    4    4    0    0 +5.6297970843e-02 -6.2395490403e-02 +1.1959835715e-01 1.4617348004e-01 5.1100000000e-04 0.0000e+00 -1.0000e+00
  1000022  1    4    4    0    0 +4.3475457824e+02 -2.2186712961e+02 +7.9152345462e+02 2.4345935894e+03 2.2500000000e+03 0.0000e+00 0.0000e+00
<mgrwt>
<rscale>  0 0.47027488E+04</rscale>
<asrwt>0</asrwt>
<pdfrwt beam="1">  1        2 0.31714447E+00 0.47027488E+04</pdfrwt>
<pdfrwt beam="2">  1       -2 0.41262897E+00 0.47027488E+04</pdfrwt>
<totfact> 0.28243548E-02</totfact>
</mgrwt>
</event>
<event>
 8      1 +1.2359593e-08 4.83453500e+03 7.81860800e-03 7.85455100e-02
        2 -1    0    0  501    0 +0.0000000000e+00 +0.0000000000e+00 +3.1321164879e+03 3.1321164879e+03 2.5500000000e-03 0.0000e+00 1.0000e+00
       -2 -1    0    0    0  501 -0.0000000000e+00 -0.0000000000e+00 -1.8655698826e+03 1.8655698826e+03 2.5500000000e-03 0.0000e+00 -1.0000e+00
  1000011  2    1    2    0    0 -5.6950559604e+02 +3.7853737089e+02 +5.5291911137e+01 2.3523679772e+03 2.2501001621e+03 4.7852e+02 0.0000e+00
 -1000011  2    1    2    0    0 +5.6950559604e+02 -3.7853737089e+02 +1.2112546942e+03 2.6453183933e+03 2.2500987318e+03 1.2614e+02 0.0000e+00
       11  1    3    3    0    0 +1.5013199562e-02 +9.9744056316e-02 +4.1847245912e-02 1.0920497053e-01 5.1100000000e-04 0.0000e+00 1.0000e+00
  1000022  1    3    3    0    0 -5.6952060924e+02 +3.7843762683e+02 +5.5250063891e+01 2.3522587722e+03 2.2500000000e+03 0.0000e+00 0.0000e+00
      -11  1    4    4    0    0 +7.5268078516e-02 -1.6704295141e-02 -3.7126224467e-02 8.5574146035e-02 5.1100000000e-04 0.0000e+00 -1.0000e+00
  1000022  1    4    4    0    0 +5.6943032796e+02 -3.7852066659e+02 +1.2112918205e+03 2.6452328192e+03 2.2500000000e+03 0.0000e+00 0.0000e+00
<mgrwt>
<rscale>  0 0.48345350E+04</rscale>
<asrwt>0</asrwt>
<pdfrwt beam="1">  1        2 0.48186408E+00 0.48345350E+04</pdfrwt>
<pdfrwt beam="2">  1       -2 0.28701075E+00 0.48345350E+04</pdfrwt>
<totfact> 0.40364831E-02</totfact>
</mgrwt>
</event>
<event>
 8      1 +1.2359593e-08 4.66481500e+03 7.81860800e-03 7.88240100e-02
       -2 -1    0    0    0  501 -0.0000000000e+00 +0.0000000000e+00 +2.1835054315e+03 2.1835054315e+03 2.5500000000e-03 0.0000e+00 -1.0000e+00
        2 -1    0    0  501    0 +0.0000000000e+00 -0.0000000000e+00 -2.4914641130e+03 2.4914641130e+03 2.5500000000e-03 0.0000e+00 1.0000e+00
  1000011  2    1    2    0    0 -2.6936239578e+02 +5.5191991112e+02 -1.5200046818e+02 2.3373545055e+03 2.2501000541e+03 6.1366e+02 0.0000e+00
 -1000011  2    1    2    0    0 +2.6936239578e+02 -5.5191991112e+02 -1.5595821324e+02 2.3376150391e+03 2.2500998684e+03 9.8395e+01 0.0000e+00
       11  1    3    3    0    0 +7.0489105743e-02 -2.6904246500e-02 +2.6871844176e-02 8.0093128978e-02 5.1100000000e-04 0.0000e+00 1.0000e+00
  1000022  1    3    3    0    0 -2.6943288488e+02 +5.5194681537e+02 -1.5202734003e+02 2.3372744123e+03 2.2500000000e+03 0.0000e+00 0.0000e+00
      -11  1    4    4    0    0 +8.2817276950e-02 +1.9560170853e-02 +4.8265496030e-02 9.7832102965e-02 5.1100000000e-04 0.0000e+00 -1.0000e+00
  1000022  1    4    4    0    0 +2.6927957850e+02 -5.5193947129e+02 -1.5600647874e+02 2.3375172069e+03 2.2500000000e+03 0.0000e+00 0.0000e+00
<mgrwt>
<rscale>  0 0.46648153E+04</rscale>
<asrwt>0</asrwt>
<pdfrwt beam="1">  1        2 0.38330217E+00 0.46648153E+04</pdfrwt>
<pdfrwt beam="2">  1       -2 0.33592391E+00 0.46648153E+04</pdfrwt>
<totfact> 0.50198583E-02</totfact>
</mgrwt>
</event>
<event>
 8      1 +1.2359593e-08 5.28589500e+03 7.81860800e-03 7.78585700e-02
        2 -1    0    0  501    0 +0.0000000000e+00 +0.0000000000e+00 +3.2200804720e+03 3.2200804720e+03 2.5500000000e-03 0.0000e+00 1.0000e+00
       -2 -1    0    0    0  501 -0.0000000000e+00 -0.0000000000e+00 -2.1692539224e+03 2.1692539224e+03 2.5500000000e-03 0.0000e+00 -1.0000e+00
  1000011  2    1    2    0    0 -1.7702450254e+02 +4.0342713442e+02 +1.8657169562e+03 2.9560062798e+03 2.2501071615e+03 7.0086e+02 0.0000e+00
 -1000011  2    1    2    0    0 +1.7702450254e+02 -4.0342713442e+02 -8.1489040656e+02 2.4333281146e+03 2.2500996004e+03 2.9959e+03 0.0000e+00
       11  1    3    3    0    0 -2.6675899139e-02 +1.5231236372e-02 +2.2546975957e-01 2.2755321852e-01 5.1100000000e-04 0.0000e+00 1.0000e+00
  1000022  1    3    3    0    0 -1.7699782665e+02 +4.0341190318e+02 +1.8654914864e+03 2.9557787265e+03 2.2500000000e+03 0.0000e+00 0.0000e+00
      -11  1    4    4    0    0 +4.7836839616e-03 +4.4388435722e-02 -1.1539501696e-01 1.2373151416e-01 5.1100000000e-04 0.0000e+00 -1.0000e+00
  1000022  1    4    4    0    0 +1.7701971886e+02 -4.0347152285e+02 -8.1477501154e+02 2.4332043831e+03 2.2500000000e+03 0.0000e+00 0.0000e+00
<mgrwt>
<rscale>  0 0.52858953E+04</rscale>
<asrwt>0</asrwt>
<pdfrwt beam="1">  1        2 0.49539699E+00 0.52858953E+04</pdfrwt>
<pdfrwt beam="2">  1       -2 0.33373137E+00 0.52858953E+04</pdfrwt>
<totfact> 0.17602763E-02</totfact>
</mgrwt>
</event>
<event>
 8      1 +1.2359593e-08 4.91903900e+03 7.81860800e-03 7.84111900e-02
       -2 -1    0    0    0  501 -0.0000000000e+00 +0.0000000000e+00 +1.5913524998e+03 1.5913524998e+03 2.5500000000e-03 0.0000e+00 -1.0000e+00
        2 -1    0    0  501    0 +0.0000000000e+00 -0.0000000000e+00 -3.8013177251e+03 3.8013177251e+03 2.5500000000e-03 0.0000e+00 1.0000e+00
  1000011  2    1    2    0    0 +8.0591320204e+02 +7.3188927630e+01 -1.7360721265e+03 2.9549721851e+03 2.2501247695e+03 4.2317e+02 0.0000e+00
 -1000011  2    1    2    0    0 -8.0591320204e+02 -7.3188927630e+01 -4.7389309876e+02 2.4376980398e+03 2.2500987435e+03 4.8327e+02 0.0000e+00
       11  1    3    3    0    0 -4.0186268537e-02 -9.2103775734e-02 -8.6379292768e-02 1.3251296122e-01 5.1100000000e-04 0.0000e+00 1.0000e+00
  1000022  1    3    3    0    0 +8.0595338831e+02 +7.3281031405e+01 -1.7359857472e+03 2.9548396722e+03 2.2500000000e+03 0.0000e+00 0.0000e+00
      -11  1    4    4    0    0 -1.1735709140e-01 -4.0110391162e-02 +2.4403390186e-02 1.2640140961e-01 5.1100000000e-04 0.0000e+00 -1.0000e+00
  1000022  1    4    4    0    0 -8.0579584495e+02 -7.3148817238e+01 -4.7391750215e+02 2.4375716383e+03 2.2500000000e+03 0.0000e+00 0.0000e+00
<mgrwt>
<rscale>  0 0.49190391E+04</rscale>
<asrwt>0</asrwt>
<pdfrwt beam="1">  1        2 0.58481811E+00 0.49190391E+04</pdfrwt>
<pdfrwt beam="2">  1       -2 0.24482346E+00 0.49190391E+04</pdfrwt>
<totfact> 0.24746025E-02</totfact>
</mgrwt>
</event>
<event>
 8      1 +1.2359593e-08 4.82736000e+03 7.81860800e-03 7.85570500e-02
       -2 -1    0    0    0  501 -0.0000000000e+00 +0.0000000000e+00 +1.9590681556e+03 1.9590681556e+03 2.5500000000e-03 0.0000e+00 -1.0000e+00
        2 -1    0    0  501    0 +0.0000000000e+00 -0.0000000000e+00 -2.9737873060e+03 2.9737873060e+03 2.5500000000e-03 0.0000e+00 1.0000e+00
  1000011  2    1    2    0    0 +3.1593949779e+02 +7.9534603217e+02 -6.8570320807e+02 2.5031080571e+03 2.2501039929e+03 1.1339e+02 0.0000e+00
 -1000011  2    1    2    0    0 -3.1593949779e+02 -7.9534603217e+02 -3.2901594239e+02 2.4297474044e+03 2.2501173040e+03 9.2880e+02 0.0000e+00
       11  1    3    3    0    0 -8.0887248990e-02 +7.0073847692e-02 -5.6469964593e-02 1.2100499598e-01 5.1100000000e-04 0.0000e+00 1.0000e+00
  1000022  1    3    3    0    0 +3.1602038504e+02 +7.9527595832e+02 -6.8564673811e+02 2.5029870521e+03 2.2500000000e+03 0.0000e+00 0.0000e+00
      -11  1    4    4    0    0 -1.6307972748e-02 -1.3225296948e-01 +5.9587983350e-02 1.4597186899e-01 5.1100000000e-04 0.0000e+00 -1.0000e+00
  1000022  1    4    4    0    0 -3.1592318981e+02 -7.9521377920e+02 -3.2907553038e+02 2.4296014326e+03 2.2500000000e+03 0.0000e+00 0.0000e+00
<mgrwt>
<rscale>  0 0.48273604E+04</rscale>
<asrwt>0</asrwt>
<pdfrwt beam="1">  1        2 0.45750574E+00 0.48273604E+04</pdfrwt>
<pdfrwt beam="2">  1       -2 0.30139510E+00 0.48273604E+04</pdfrwt>
<totfact> 0.41571434E-02</totfact>
</mgrwt>
</event>
<event>
 8      1 +1.2359593e-08 4.59285500e+03 7.81860800e-03 7.89457900e-02
        2 -1    0    0  501    0 +0.0000000000e+00 +0.0000000000e+00 +2.6767643200e+03 2.6767643200e+03 2.5500000000e-03 0.0000e+00 1.0000e+00
       -2 -1    0    0    0  501 -0.0000000000e+00 -0.0000000000e+00 -1.9701320225e+03 1.9701320225e+03 2.5500000000e-03 0.0000e+00 -1.0000e+00
  1000011  2    1    2    0    0 -1.3255461055e+02 -4.2895811299e+01 -8.9112253314e+01 2.2561696776e+03 2.2500999633e+03 1.5275e+03 0.0000e+00
 -1000011  2    1    2    0    0 +1.3255461055e+02 +4.2895811299e+01 +7.9574455082e+02 2.3907266648e+03 2.2501008467e+03 2.1295e+02 0.0000e+00
       11  1    3    3    0    0 -1.0246326997e-01 -2.7365514909e-02 +3.2267007780e-03 1.0610497438e-01 5.1100000000e-04 0.0000e+00 1.0000e+00
  1000022  1    3    3    0    0 -1.3245214728e+02 -4.2868445785e+01 -8.9115480015e+01 2.2560635726e+03 2.2500000000e+03 0.0000e+00 0.0000e+00
      -11  1    4    4    0    0 +1.2589201558e-02 +1.8912345963e-02 -6.9263227138e-02 7.2895953980e-02 5.1100000000e-04 0.0000e+00 -1.0000e+00
  1000022  1    4    4    0    0 +1.3254202135e+02 +4.2876898954e+01 +7.9581381404e+02 2.3906537688e+03 2.2500000000e+03 0.0000e+00 0.0000e+00
<mgrwt>
<rscale>  0 0.45928549E+04</rscale>
<asrwt>0</asrwt>
<pdfrwt beam="1">  1        2 0.41180989E+00 0.45928549E+04</pdfrwt>
<pdfrwt beam="2">  1       -2 0.30309724E+00 0.45928549E+04</pdfrwt>
<totfact> 0.62721016E-02</totfact>
</mgrwt>
</event>
<event>
 8      1 +1.2359593e-08 4.66669000e+03 7.81860800e-03 7.88208700e-02
       -2 -1    0    0    0  501 -0.0000000000e+00 +0.0000000000e+00 +1.9535193225e+03 1.9535193225e+03 2.5500000000e-03 0.0000e+00 -1.0000e+00
        2 -1    0    0  501    0 +0.0000000000e+00 -0.0000000000e+00 -2.7870202616e+03 2.7870202616e+03 2.5500000000e-03 0.0000e+00 1.0000e+00
  1000011  2    1    2    0    0 -5.8753292837e+02 -1.0749315517e+02 -5.7674486758e+02 2.3983989156e+03 2.2500962192e+03 5.3635e+02 0.0000e+00
 -1000011  2    1    2    0    0 +5.8753292837e+02 +1.0749315517e+02 -2.5675607143e+02 2.3421406685e+03 2.2500998891e+03 4.7188e+02 0.0000e+00
       11  1    3    3    0    0 -4.2945541213e-02 +8.7524340492e-02 -2.7798089868e-03 9.7533676143e-02 5.1100000000e-04 0.0000e+00 1.0000e+00
  1000022  1    3    3    0    0 -5.8748998283e+02 -1.0758067951e+02 -5.7674208777e+02 2.3983013819e+03 2.2500000000e+03 0.0000e+00 0.0000e+00
      -11  1    4    4    0    0 +6.3626025475e-02 +6.3546489914e-02 +6.0234914471e-02 1.0823554517e-01 5.1100000000e-04 0.0000e+00 -1.0000e+00
  1000022  1    4    4    0    0 +5.8746930234e+02 +1.0742960868e+02 -2.5681630634e+02 2.3420324330e+03 2.2500000000e+03 0.0000e+00 0.0000e+00
<mgrwt>
<rscale>  0 0.46666896E+04</rscale>
<asrwt>0</asrwt>
<pdfrwt beam="1">  1        2 0.42877235E+00 0.46666896E+04</pdfrwt>
<pdfrwt beam="2">  1       -2 0.30054143E+00 0.46666896E+04</pdfrwt>
<totfact> 0.55511523E-02</totfact>
</mgrwt>
</event>
<event>
 8      1 +1.2359593e-08 5.10407800e+03 7.81860800e-03 7.81265000e-02
       -2 -1    0    0    0  501 -0.0000000000e+00 +0.0000000000e+00 +2.5355459159e+03 2.5355459160e+03 2.5500000000e-03 0.0000e+00 -1.0000e+00
        2 -1    0    0  501    0 +0.0000000000e+00 -0.0000000000e+00 -2.5686393806e+03 2.5686393806e+03 2.5500000000e-03 0.0000e+00 1.0000e+00
  1000011  2    1    2    0    0 +3.8998507854e+02 -9.1571687782e+02 +6.6120603546e+02 2.5476979572e+03 2.2500990418e+03 2.0249e+03 0.0000e+00
 -1000011  2    1    2    0    0 -3.8998507854e+02 +9.1571687782e+02 -6.9429950007e+02 2.5564873393e+03 2.2500999886e+03 7.5866e+02 0.0000e+00
       11  1    3    3    0    0 +1.3765331690e-02 -1.3715256281e-01 -3.7766862940e-03 1.3789428534e-01 5.1100000000e-04 0.0000e+00 1.0000e+00
  1000022  1    3    3    0    0 +3.8997131321e+02 -9.1557972525e+02 +6.6120981214e+02 2.5475600629e+03 2.2500000000e+03 0.0000e+00 0.0000e+00
      -11  1    4    4    0    0 +5.7954100782e-02 +9.7873469560e-02 +1.6991800663e-03 1.1375869939e-01 5.1100000000e-04 0.0000e+00 -1.0000e+00
  1000022  1    4    4    0    0 -3.9004303264e+02 +9.1561900435e+02 -6.9430119925e+02 2.5563735806e+03 2.2500000000e+03 0.0000e+00 0.0000e+00
<mgrwt>
<rscale>  0 0.51040780E+04</rscale>
<asrwt>0</asrwt>
<pdfrwt beam="1">  1        2 0.39517529E+00 0.51040780E+04</pdfrwt>
<pdfrwt beam="2">  1       -2 0.39008399E+00 0.51040780E+04</pdfrwt>
<totfact> 0.19758108E-02</totfact>
</mgrwt>
</event>
<event>
 8      1 +1.2359593e-08 5.85914800e+03 7.81860800e-03 7.70811500e-02
        2 -1    0    0  501    0 +0.0000000000e+00 +0.0000000000e+00 +2.5517279181e+03 2.5517279181e+03 2.5500000000e-03 0.0000e+00 1.0000e+00
       -2 -1    0    0    0  501 -0.0000000000e+00 -0.0000000000e+00 -3.3633695768e+03 3.3633695768e+03 2.5500000000e-03 0.0000e+00 -1.0000e+00
  1000011  2    1    2    0    0 -8.0281975381e+02 +1.6489057432e+03 -7.0125277400e+00 2.9028232566e+03 2.2500942151e+03 2.1199e+03 0.0000e+00
 -1000011  2    1    2    0    0 +8.0281975381e+02 -1.6489057432e+03 -8.0462913089e+02 3.0122742383e+03 2.2501018513e+03 2.4158e+03 0.0000e+00
       11  1    3    3    0    0 +5.7897257788e-02 +6.2790774586e-02 +3.5765315405e-02 9.2596936085e-02 5.1100000000e-04 0.0000e+00 1.0000e+00
  1000022  1    3    3    0    0 -8.0287765106e+02 +1.6488429524e+03 -7.0482930554e+00 2.9027306597e+03 2.2500000000e+03 0.0000e+00 0.0000e+00
      -11  1    4    4    0    0 +8.9377365187e-02 -3.2507677890e-02 -1.1336403312e-01 1.4797542797e-01 5.1100000000e-04 0.0000e+00 -1.0000e+00
  1000022  1    4    4    0    0 +8.0273037644e+02 -1.6488732355e+03 -8.0451576686e+02 3.0121262628e+03 2.2500000000e+03 0.0000e+00 0.0000e+00
<mgrwt>
<rscale>  0 0.58591481E+04</rscale>
<asrwt>0</asrwt>
<pdfrwt beam="1">  1        2 0.39257353E+00 0.58591481E+04</pdfrwt>
<pdfrwt beam="2">  1       -2 0.51744147E+00 0.58591481E+04</pdfrwt>
<totfact> 0.28966868E-03</totfact>
</mgrwt>
</event>
<event>
 8      1 +1.2359593e-08 4.70410200e+03 7.81860800e-03 7.87584700e-02
        2 -1    0    0  501    0 +0.0000000000e+00 +0.0000000000e+00 +3.0638995910e+03 3.0638995910e+03 2.5500000000e-03 0.0000e+00 -1.0000e+00
       -2 -1    0    0    0  501 -0.0000000000e+00 -0.0000000000e+00 -1.8055894589e+03 1.8055894589e+03 2.5500000000e-03 0.0000e+00 1.0000e+00
  1000011  2    1    2    0    0 -6.6776300380e+02 +1.2426454426e+02 +5.3757136260e+02 2.4110730503e+03 2.2500980373e+03 1.2599e+03 0.0000e+00
 -1000011  2    1    2    0    0 +6.6776300380e+02 -1.2426454426e+02 +7.2073876946e+02 2.4584159996e+03 2.2501101633e+03 3.4404e+03 0.0000e+00
       11  1    3    3    0    0 +7.1840051896e-03 +4.0124220149e-02 -6.5327056586e-02 7.7002909418e-02 5.1100000000e-04 0.0000e+00 1.0000e+00
  1000022  1    3    3    0    0 -6.6777018780e+02 +1.2422442004e+02 +5.3763668965e+02 2.4109960473e+03 2.2500000000e+03 0.0000e+00 0.0000e+00
      -11  1    4    4    0    0 +1.3249450702e-01 -1.1310285871e-02 +1.0103926771e-01 1.6700871590e-01 5.1100000000e-04 0.0000e+00 -1.0000e+00
  1000022  1    4    4    0    0 +6.6763050929e+02 -1.2425323398e+02 +7.2063773020e+02 2.4582489909e+03 2.2500000000e+03 0.0000e+00 0.0000e+00
<mgrwt>
<rscale>  0 0.47041024E+04</rscale>
<asrwt>0</asrwt>
<pdfrwt beam="1">  1        2 0.47136917E+00 0.47041024E+04</pdfrwt>
<pdfrwt beam="2">  1       -2 0.27778300E+00 0.47041024E+04</pdfrwt>
<totfact> 0.51345905E-02</totfact>
</mgrwt>
</event>
<event>
 8      1 +1.2359593e-08 5.53369100e+03 7.81860800e-03 7.75107000e-02
       -2 -1    0    0    0  501 -0.0000000000e+00 +0.0000000000e+00 +2.3543572777e+03 2.3543572777e+03 2.5500000000e-03 0.0000e+00 -1.0000e+00
        2 -1    0    0  501    0 +0.0000000000e+00 -0.0000000000e+00 -3.2516026546e+03 3.2516026546e+03 2.5500000000e-03 0.0000e+00 1.0000e+00
  1000011  2    1    2    0    0 +7.3401272582e+02 -3.1499748379e+01 +1.0028169689e+03 2.5706755060e+03 2.2501030572e+03 2.5739e+03 0.0000e+00
 -1000011  2    1    2    0    0 -7.3401272582e+02 +3.1499748379e+01 -1.9000623458e+03 3.0352844263e+03 2.2500994900e+03 8.9109e+02 0.0000e+00
       11  1    3    3    0    0 +3.3147424743e-02 +5.7283972411e-02 -4.6437440386e-02 8.0851110302e-02 5.1100000000e-04 0.0000e+00 1.0000e+00
  1000022  1    3    3    0    0 +7.3397957840e+02 -3.1557032352e+01 +1.0028634064e+03 2.5705946549e+03 2.2500000000e+03 0.0000e+00 0.0000e+00
      -11  1    4    4    0    0 -8.0166775360e-02 -7.8658830080e-02 -4.7029329845e-02 1.2176182607e-01 5.1100000000e-04 0.0000e+00 -1.0000e+00
  1000022  1    4    4    0    0 -7.3393255905e+02 +3.1578407210e+01 -1.9000153165e+03 3.0351626645e+03 2.2500000000e+03 0.0000e+00 0.0000e+00
<mgrwt>
<rscale>  0 0.55336911E+04</rscale>
<asrwt>0</asrwt>
<pdfrwt beam="1">  1        2 0.50024656E+00 0.55336911E+04</pdfrwt>
<pdfrwt beam="2">  1       -2 0.36220881E+00 0.55336911E+04</pdfrwt>
<totfact> 0.10889427E-02</totfact>
</mgrwt>
</event>
<event>
 8      1 +1.2359593e-08 4.86595700e+03 7.81860800e-03 7.84952400e-02
       -2 -1    0    0    0  501 -0.0000000000e+00 +0.0000000000e+00 +1.8433826854e+03 1.8433826854e+03 2.5500000000e-03 0.0000e+00 -1.0000e+00
        2 -1    0    0  501    0 +0.0000000000e+00 -0.0000000000e+00 -3.2111532290e+03 3.2111532290e+03 2.5500000000e-03 0.0000e+00 1.0000e+00
  1000011  2    1    2    0    0 -3.1700702234e+02 +2.8629118895e+02 +1.6888741715e+02 2.2965051327e+03 2.2501015016e+03 2.5598e+02 0.0000e+00
 -1000011  2    1    2    0    0 +3.1700702234e+02 -2.8629118895e+02 -1.5366579608e+03 2.7580307817e+03 2.2501022215e+03 3.1217e+03 0.0000e+00
       11  1    3    3    0    0 +3.3000290349e-02 -2.9916735531e-02 -7.3298895955e-02 8.5773066262e-02 5.1100000000e-04 0.0000e+00 1.0000e+00
  1000022  1    3    3    0    0 -3.1704002263e+02 +2.8632110569e+02 +1.6896071604e+02 2.2964193596e+03 2.2500000000e+03 0.0000e+00 0.0000e+00
      -11  1    4    4    0    0 -7.0839555869e-02 +4.6598171774e-02 -5.7660780247e-02 1.0254100809e-01 5.1100000000e-04 0.0000e+00 -1.0000e+00
  1000022  1    4    4    0    0 +3.1707786190e+02 -2.8633778713e+02 -1.5366003000e+03 2.7579282407e+03 2.2500000000e+03 0.0000e+00 0.0000e+00
<mgrwt>
<rscale>  0 0.48659570E+04</rscale>
<asrwt>0</asrwt>
<pdfrwt beam="1">  1        2 0.49402358E+00 0.48659570E+04</pdfrwt>
<pdfrwt beam="2">  1       -2 0.28359734E+00 0.48659570E+04</pdfrwt>
<totfact> 0.37528774E-02</totfact>
</mgrwt>
</event>
<event>
 8      1 +1.2359593e-08 5.00973000e+03 7.81860800e-03 7.82700800e-02
       -2 -1    0    0    0  501 -0.0000000000e+00 +0.0000000000e+00 +1.8358156220e+03 1.8358156220e+03 2.5500000000e-03 0.0000e+00 -1.0000e+00
        2 -1    0    0  501    0 +0.0000000000e+00 -0.0000000000e+00 -3.4177444101e+03 3.4177444101e+03 2.5500000000e-03 0.0000e+00 1.0000e+00
  1000011  2    1    2    0    0 +3.8853056466e+02 -9.8228560073e+02 -4.6678690612e+02 2.5291654106e+03 2.2500992550e+03 6.8005e+02 0.0000e+00
 -1000011  2    1    2    0    0 -3.8853056466e+02 +9.8228560073e+02 -1.1151418820e+03 2.7243946215e+03 2.2500985836e+03 2.2219e+02 0.0000e+00
       11  1    3    3    0    0 +2.1835818666e-02 -8.8219887503e-02 -1.1594219118e-01 1.4731735759e-01 5.1100000000e-04 0.0000e+00 1.0000e+00
  1000022  1    3    3    0    0 +3.8850872884e+02 -9.8219738084e+02 -4.6667096393e+02 2.5290180932e+03 2.2500000000e+03 0.0000e+00 0.0000e+00
      -11  1    4    4    0    0 +2.4337084131e-02 -3.7439136007e-02 -9.1676112220e-02 1.0197427631e-01 5.1100000000e-04 0.0000e+00 -1.0000e+00
  1000022  1    4    4    0    0 -3.8855490174e+02 +9.8232303986e+02 -1.1150502058e+03 2.7242926473e+03 2.2500000000e+03 0.0000e+00 0.0000e+00
<mgrwt>
<rscale>  0 0.50097300E+04</rscale>
<asrwt>0</asrwt>
<pdfrwt beam="1">  1        2 0.52580683E+00 0.50097300E+04</pdfrwt>
<pdfrwt beam="2">  1       -2 0.28243317E+00 0.50097300E+04</pdfrwt>
<totfact> 0.27401686E-02</totfact>
</mgrwt>
</event>
<event>
 8      1 +1.2359593e-08 4.70830700e+03 7.81860800e-03 7.87515000e-02
        2 -1    0    0  501    0 +0.0000000000e+00 +0.0000000000e+00 +2.3971769273e+03 2.3971769273e+03 2.5500000000e-03 0.0000e+00 1.0000e+00
       -2 -1    0    0    0  501 -0.0000000000e+00 -0.0000000000e+00 -2.3119025801e+03 2.3119025801e+03 2.5500000000e-03 0.0000e+00 -1.0000e+00
  1000011  2    1    2    0    0 -1.7260012275e+02 +4.0313143051e+02 -4.9297303787e+02 2.3448420952e+03 2.2501013939e+03 1.7138e+02 0.0000e+00
 -1000011  2    1    2    0    0 +1.7260012275e+02 -4.0313143051e+02 +5.7824738506e+02 2.3642374123e+03 2.2500983869e+03 1.2759e+03 0.0000e+00
       11  1    3    3    0    0 +6.5865600338e-02 -4.4856797063e-02 +1.6219355901e-02 8.1324889898e-02 5.1100000000e-04 0.0000e+00 1.0000e+00
  1000022  1    3    3    0    0 -1.7266598835e+02 +4.0317628731e+02 -4.9298925723e+02 2.3447607703e+03 2.2500000000e+03 0.0000e+00 0.0000e+00
      -11  1    4    4    0    0 +1.0309326504e-01 -3.4308822817e-02 +7.8813279127e-03 1.0893894020e-01 5.1100000000e-04 0.0000e+00 -1.0000e+00
  1000022  1    4    4    0    0 +1.7249702949e+02 -4.0309712169e+02 +5.7823950373e+02 2.3641284733e+03 2.2500000000e+03 0.0000e+00 0.0000e+00
<mgrwt>
<rscale>  0 0.47083073E+04</rscale>
<asrwt>0</asrwt>
<pdfrwt beam="1">  1        2 0.36879645E+00 0.47083073E+04</pdfrwt>
<pdfrwt beam="2">  1       -2 0.35567732E+00 0.47083073E+04</pdfrwt>
<totfact> 0.42590571E-02</totfact>
</mgrwt>
</event>
<event>
 8      1 +1.2359593e-08 4.64536900e+03 7.81860800e-03 7.88567000e-02
       -2 -1    0    0    0  501 -0.0000000000e+00 +0.0000000000e+00 +2.3180916424e+03 2.3180916424e+03 2.5500000000e-03 0.0000e+00 -1.0000e+00
        2 -1    0    0  501    0 +0.0000000000e+00 -0.0000000000e+00 -2.3272867391e+03 2.3272867391e+03 2.5500000000e-03 0.0000e+00 1.0000e+00
  1000011  2    1    2    0    0 +3.1694255583e+02 -4.1543455157e+02 -2.4723820357e+02 2.3231685597e+03 2.2500993260e+03 4.9107e+02 0.0000e+00
 -1000011  2    1    2    0    0 -3.1694255583e+02 +4.1543455157e+02 +2.3804310689e+02 2.3222098219e+03 2.2501012168e+03 2.4173e+02 0.0000e+00
       11  1    3    3    0    0 -8.2734766135e-02 -4.2587400924e-02 -1.0709480419e-02 9.3667934950e-02 5.1100000000e-04 0.0000e+00 1.0000e+00
  1000022  1    3    3    0    0 +3.1702529059e+02 -4.1539196417e+02 -2.4722749409e+02 2.3230748917e+03 2.2500000000e+03 0.0000e+00 0.0000e+00
      -11  1    4    4    0    0 -4.5069624318e-02 +1.8262744400e-02 +1.0814385692e-01 1.1857551709e-01 5.1100000000e-04 0.0000e+00 -1.0000e+00
  1000022  1    4    4    0    0 -3.1689748620e+02 +4.1541628883e+02 +2.3793496303e+02 2.3220912464e+03 2.2500000000e+03 0.0000e+00 0.0000e+00
<mgrwt>
<rscale>  0 0.46453693E+04</rscale>
<asrwt>0</asrwt>
<pdfrwt beam="1">  1        2 0.35804411E+00 0.46453693E+04</pdfrwt>
<pdfrwt beam="2">  1       -2 0.35662948E+00 0.46453693E+04</pdfrwt>
<totfact> 0.46280765E-02</totfact>
</mgrwt>
</event>
<event>
 8      1 +1.2359593e-08 4.57011300e+03 7.81860800e-03 7.89847600e-02
        2 -1    0    0  501    0 +0.0000000000e+00 +0.0000000000e+00 +2.4791808003e+03 2.4791808003e+03 2.5500000000e-03 0.0000e+00 1.0000e+00
       -2 -1    0    0    0  501 -0.0000000000e+00 -0.0000000000e+00 -2.1061322776e+03 2.1061322776e+03 2.5500000000e-03 0.0000e+00 -1.0000e+00
  1000011  2    1    2    0    0 -3.9198774407e+02 +6.9919611379e+01 +1.8721041535e+02 2.2927127562e+03 2.2500979755e+03 1.2908e+03 0.0000e+00
 -1000011  2    1    2    0    0 +3.9198774407e+02 -6.9919611379e+01 +1.8583810735e+02 2.2926003216e+03 2.2500971733e+03 4.2158e+03 0.0000e+00
       11  1    3    3    0    0 -1.0839186174e-01 +4.2140251653e-02 +1.3327921729e-02 1.1705763842e-01 5.1100000000e-04 0.0000e+00 1.0000e+00
  1000022  1    3    3    0    0 -3.9187935221e+02 +6.9877471128e+01 +1.8719708742e+02 2.2925956986e+03 2.2500000000e+03 0.0000e+00 0.0000e+00
      -11  1    4    4    0    0 -1.4275160232e-02 +8.7439317284e-02 -1.1444560532e-02 8.9334502469e-02 5.1100000000e-04 0.0000e+00 -1.0000e+00
  1000022  1    4    4    0    0 +3.9200201923e+02 -7.0007050696e+01 +1.8584955191e+02 2.2925109871e+03 2.2500000000e+03 0.0000e+00 0.0000e+00
<mgrwt>
<rscale>  0 0.45701128E+04</rscale>
<asrwt>0</asrwt>
<pdfrwt beam="1">  1        2 0.38141243E+00 0.45701128E+04</pdfrwt>
<pdfrwt beam="2">  1       -2 0.32402035E+00 0.45701128E+04</pdfrwt>
<totfact> 0.60974139E-02</totfact>
</mgrwt>
</event>
<event>
 8      1 +1.2359593e-08 4.78403900e+03 7.81860800e-03 7.86271300e-02
        2 -1    0    0  501    0 +0.0000000000e+00 +0.0000000000e+00 +4.6771421520e+03 4.6771421520e+03 2.5500000000e-03 0.0000e+00 1.0000e+00
       -2 -1    0    0    0  501 -0.0000000000e+00 -0.0000000000e+00 -1.2233446076e+03 1.2233446076e+03 2.5500000000e-03 0.0000e+00 -1.0000e+00
  1000011  2    1    2    0    0 +5.3560777942e+01 -5.6935343478e+02 +2.4373131649e+03 3.3660788515e+03 2.2501020600e+03 3.6700e+02 0.0000e+00
 -1000011  2    1    2    0    0 -5.3560777942e+01 +5.6935343478e+02 +1.0164843795e+03 2.5344079081e+03 2.2501001890e+03 3.0179e+01 0.0000e+00
       11  1    3    3    0    0 -2.7848478937e-02 +2.3132034179e-02 +2.2077832087e-01 2.2372741527e-01 5.1100000000e-04 0.0000e+00 1.0000e+00
  1000022  1    3    3    0    0 +5.3588626421e+01 -5.6937656681e+02 +2.4370923865e+03 3.3658551241e+03 2.2500000000e+03 0.0000e+00 0.0000e+00
      -11  1    4    4    0    0 +5.9542734212e-02 +1.0280223445e-01 +2.8251172301e-02 1.2211480684e-01 5.1100000000e-04 0.0000e+00 -1.0000e+00
  1000022  1    4    4    0    0 -5.3620320677e+01 +5.6925063254e+02 +1.0164561284e+03 2.5342857933e+03 2.2500000000e+03 0.0000e+00 0.0000e+00
<mgrwt>
<rscale>  0 0.47840387E+04</rscale>
<asrwt>0</asrwt>
<pdfrwt beam="1">  1        2 0.71956034E+00 0.47840387E+04</pdfrwt>
<pdfrwt beam="2">  1       -2 0.18820686E+00 0.47840387E+04</pdfrwt>
<totfact> 0.94718060E-03</totfact>
</mgrwt>
</event>
<event>
 8      1 +1.2359593e-08 4.80076500e+03 7.81860800e-03 7.85999800e-02
       -2 -1    0    0    0  501 -0.0000000000e+00 +0.0000000000e+00 +2.5772481961e+03 2.5772481961e+03 2.5500000000e-03 0.0000e+00 -1.0000e+00
        2 -1    0    0  501    0 +0.0000000000e+00 -0.0000000000e+00 -2.2356540949e+03 2.2356540949e+03 2.5500000000e-03 0.0000e+00 1.0000e+00
  1000011  2    1    2    0    0 -2.0961092317e+02 +1.3935151354e+02 -6.2841570163e+02 2.3497285451e+03 2.2501027440e+03 4.0307e+02 0.0000e+00
 -1000011  2    1    2    0    0 +2.0961092317e+02 -1.3935151354e+02 +9.7000980279e+02 2.4631737459e+03 2.2501000648e+03 3.9929e+03 0.0000e+00
       11  1    3    3    0    0 -9.9258674944e-02 +5.2432243325e-02 -5.5300100832e-02 1.2513906822e-01 5.1100000000e-04 0.0000e+00 1.0000e+00
  1000022  1    3    3    0    0 -2.0951166449e+02 +1.3929908129e+02 -6.2836040153e+02 2.3496034061e+03 2.2500000000e+03 0.0000e+00 0.0000e+00
      -11  1    4    4    0    0 +8.0223970280e-02 -4.3868892125e-02 +1.1262177672e-01 1.4506650366e-01 5.1100000000e-04 0.0000e+00 -1.0000e+00
  1000022  1    4    4    0    0 +2.0953069920e+02 -1.3930764465e+02 +9.6989718101e+02 2.4630286794e+03 2.2500000000e+03 0.0000e+00 0.0000e+00
<mgrwt>
<rscale>  0 0.48007647E+04</rscale>
<asrwt>0</asrwt>
<pdfrwt beam="1">  1        2 0.34394679E+00 0.48007647E+04</pdfrwt>
<pdfrwt beam="2">  1       -2 0.39649972E+00 0.48007647E+04</pdfrwt>
<totfact> 0.28542511E-02</totfact>
</mgrwt>
</event>
<event>
 8      1 +1.2359593e-08 4.81768300e+03 7.81860800e-03 7.85726400e-02
       -2 -1    0    0    0  501 -0.0000000000e+00 +0.0000000000e+00 +2.3023066359e+03 2.3023066359e+03 2.5500000000e-03 0.0000e+00 -1.0000e+00
        2 -1    0    0  501    0 +0.0000000000e+00 -0.0000000000e+00 -2.5203065472e+03 2.5203065472e+03 2.5500000000e-03 0.0000e+00 1.0000e+00
  1000011  2    1    2    0    0 +3.8794988746e+02 -1.2883874378e+02 -8.6638030132e+02 2.4455434920e+03 2.2501030215e+03 8.1684e+02 0.0000e+00
 -1000011  2    1    2    0    0 -3.8794988746e+02 +1.2883874378e+02 +6.4838039002e+02 2.3770696912e+03 2.2501019198e+03 7.6340e+02 0.0000e+00
       11  1    3    3    0    0 -6.1786149630e-02 +4.6261739205e-02 -7.9237816808e-02 1.1061902669e-01 5.1100000000e-04 0.0000e+00 1.0000e+00
  1000022  1    3    3    0    0 +3.8801167361e+02 -1.2888500552e+02 -8.6630106350e+02 2.4454328730e+03 2.2500000000e+03 0.0000e+00 0.0000e+00
      -11  1    4    4    0    0 -1.1422240143e-01 +7.9331319109e-03 +7.1726725547e-02 1.3510986488e-01 5.1100000000e-04 0.0000e+00 -1.0000e+00
  1000022  1    4    4    0    0 -3.8783566506e+02 +1.2883081065e+02 +6.4830866329e+02 2.3769345813e+03 2.2500000000e+03 0.0000e+00 0.0000e+00
<mgrwt>
<rscale>  0 0.48176835E+04</rscale>
<asrwt>0</asrwt>
<pdfrwt beam="1">  1        2 0.38773947E+00 0.48176835E+04</pdfrwt>
<pdfrwt beam="2">  1       -2 0.35420102E+00 0.48176835E+04</pdfrwt>
<totfact> 0.36627001E-02</totfact>
</mgrwt>
</event>
<event>
 8      1 +1.2359593e-08 4.92213200e+03 7.81860800e-03 7.84063300e-02
        2 -1    0    0  501    0 +0.0000000000e+00 +0.0000000000e+00 +3.8102240973e+03 3.8102240973e+03 2.5500000000e-03 0.0000e+00 1.0000e+00
       -2 -1    0    0    0  501 -0.0000000000e+00 -0.0000000000e+00 -1.5896300880e+03 1.5896300880e+03 2.5500000000e-03 0.0000e+00 -1.0000e+00
  1000011  2    1    2    0    0 +4.9096667853e+02 +7.8563093018e+01 +2.0582652995e+03 3.0897626737e+03 2.2501015306e+03 4.5413e+01 0.0000e+00
 -1000011  2    1    2    0    0 -4.9096667853e+02 -7.8563093018e+01 +1.6232870984e+02 2.3100915116e+03 2.2501003851e+03 6.8542e+01 0.0000e+00
       11  1    3    3    0    0 +7.1135462704e-02 -4.9573288222e-02 +4.2485007211e-03 8.6810571829e-02 5.1100000000e-04 0.0000e+00 1.0000e+00
  1000022  1    3    3    0    0 +4.9089554307e+02 +7.8612666306e+01 +2.0582610509e+03 3.0896758632e+03 2.2500000000e+03 0.0000e+00 0.0000e+00
      -11  1    4    4    0    0 +5.0370999857e-02 -6.1970010671e-02 -3.3981828210e-02 8.6790238800e-02 5.1100000000e-04 0.0000e+00 -1.0000e+00
  1000022  1    4    4    0    0 -4.9101704953e+02 -7.8501123007e+01 +1.6236269167e+02 2.3100047214e+03 2.2500000000e+03 0.0000e+00 0.0000e+00
<mgrwt>
<rscale>  0 0.49221324E+04</rscale>
<asrwt>0</asrwt>
<pdfrwt beam="1">  1        2 0.58618832E+00 0.49221324E+04</pdfrwt>
<pdfrwt beam="2">  1       -2 0.24455848E+00 0.49221324E+04</pdfrwt>
<totfact> 0.24446807E-02</totfact>
</mgrwt>
</event>
<event>
 8      1 +1.2359593e-08 4.88302800e+03 7.81860800e-03 7.84680900e-02
       -2 -1    0    0    0  501 -0.0000000000e+00 +0.0000000000e+00 +2.6528450094e+03 2.6528450094e+03 2.5500000000e-03 0.0000e+00 -1.0000e+00
        2 -1    0    0  501    0 +0.0000000000e+00 -0.0000000000e+00 -2.2470182313e+03 2.2470182313e+03 2.5500000000e-03 0.0000e+00 1.0000e+00
  1000011  2    1    2    0    0 +5.8375554097e+02 -1.0849527093e+02 +9.4403853381e+02 2.5113143998e+03 2.2500998880e+03 4.1756e+02 0.0000e+00
 -1000011  2    1    2    0    0 -5.8375554097e+02 +1.0849527093e+02 -5.3821175576e+02 2.3885488409e+03 2.2501004235e+03 2.4233e+03 0.0000e+00
       11  1    3    3    0    0 +4.9405854226e-02 -7.9140126085e-02 -2.2450182405e-02 9.5960249562e-02 5.1100000000e-04 0.0000e+00 1.0000e+00
  1000022  1    3    3    0    0 +5.8370613511e+02 -1.0841613080e+02 +9.4406098399e+02 2.5112184395e+03 2.2500000000e+03 0.0000e+00 0.0000e+00
      -11  1    4    4    0    0 -3.1595178078e-02 +4.3254211031e-02 +7.0362175328e-02 8.8432338756e-02 5.1100000000e-04 0.0000e+00 -1.0000e+00
  1000022  1    4    4    0    0 -5.8372394579e+02 +1.0845201672e+02 -5.3828211794e+02 2.3884604086e+03 2.2500000000e+03 0.0000e+00 0.0000e+00
<mgrwt>
<rscale>  0 0.48830282E+04</rscale>
<asrwt>0</asrwt>
<pdfrwt beam="1">  1        2 0.34569511E+00 0.48830282E+04</pdfrwt>
<pdfrwt beam="2">  1       -2 0.40813000E+00 0.48830282E+04</pdfrwt>
<totfact> 0.23452900E-02</totfact>
</mgrwt>
</event>
<event>
 8      1 +1.2359593e-08 5.51753900e+03 7.81860800e-03 7.75328000e-02
        1 -1    0    0  501    0 +0.0000000000e+00 +0.0000000000e+00 +4.3465577173e+03 4.3465577173e+03 5.0400000000e-03 0.0000e+00 1.0000e+00
       -1 -1    0    0    0  501 -0.0000000000e+00 -0.0000000000e+00 -1.7509969528e+03 1.7509969528e+03 5.0400000000e-03 0.0000e+00 -1.0000e+00
  1000011  2    1    2    0    0 -2.0134100079e+01 -4.6775298749e+02 +2.9841841237e+03 3.7666388501e+03 2.2501144645e+03 1.9784e+03 0.0000e+00
 -1000011  2    1    2    0    0 +2.0134100079e+01 +4.6775298749e+02 -3.8862335916e+02 2.3309158201e+03 2.2500982658e+03 2.9541e+03 0.0000e+00
       11  1    3    3    0    0 -5.7009534027e-02 -3.2173655475e-02 +3.1773225896e-01 3.2440604183e-01 5.1100000000e-04 0.0000e+00 1.0000e+00
  1000022  1    3    3    0    0 -2.0077090545e+01 -4.6772081384e+02 +2.9838663914e+03 3.7663144440e+03 2.2500000000e+03 0.0000e+00 0.0000e+00
      -11  1    4    4    0    0 -3.6666167089e-02 +7.1038206038e-02 +5.8473074435e-02 9.9046432219e-02 5.1100000000e-04 0.0000e+00 -1.0000e+00
  1000022  1    4    4    0    0 +2.0170766247e+01 +4.6768194929e+02 -3.8868183224e+02 2.3308167736e+03 2.2500000000e+03 0.0000e+00 0.0000e+00
<mgrwt>
<rscale>  0 0.55175391E+04</rscale>
<asrwt>0</asrwt>
<pdfrwt beam="1">  1        1 0.66870118E+00 0.55175391E+04</pdfrwt>
<pdfrwt beam="2">  1       -1 0.26938415E+00 0.55175391E+04</pdfrwt>
<totfact> 0.16473716E-03</totfact>
</mgrwt>
</event>
<event>
 8      1 +1.2359593e-08 4.68978700e+03 7.81860800e-03 7.87822800e-02
        2 -1    0    0  501    0 +0.0000000000e+00 +0.0000000000e+00 +3.6073535455e+03 3.6073535455e+03 2.5500000000e-03 0.0000e+00 1.0000e+00
       -2 -1    0    0    0  501 -0.0000000000e+00 -0.0000000000e+00 -1.5242547376e+03 1.5242547376e+03 2.5500000000e-03 0.0000e+00 -1.0000e+00
  1000011  2    1    2    0    0 -3.5588809443e+02 +5.4040519124e+02 +8.9935106652e+02 2.5080813297e+03 2.2500989999e+03 5.9515e+02 0.0000e+00
 -1000011  2    1    2    0    0 +3.5588809443e+02 -5.4040519124e+02 +1.1837477414e+03 2.6235269533e+03 2.2500979652e+03 9.7932e+02 0.0000e+00
       11  1    3    3    0    0 -5.5009337959e-02 +1.1136356920e-01 +8.7756171936e-02 1.5208312886e-01 5.1100000000e-04 0.0000e+00 1.0000e+00
  1000022  1    3    3    0    0 -3.5583308509e+02 +5.4029382767e+02 +8.9926331035e+02 2.5079292466e+03 2.2500000000e+03 0.0000e+00 0.0000e+00
      -11  1    4    4    0    0 +1.0041362635e-01 -7.5833605835e-02 +4.5640162408e-02 1.3385409047e-01 5.1100000000e-04 0.0000e+00 -1.0000e+00
  1000022  1    4    4    0    0 +3.5578768080e+02 -5.4032935764e+02 +1.1837021013e+03 2.6233930992e+03 2.2500000000e+03 0.0000e+00 0.0000e+00
<mgrwt>
<rscale>  0 0.46897871E+04</rscale>
<asrwt>0</asrwt>
<pdfrwt beam="1">  1        2 0.55497746E+00 0.46897871E+04</pdfrwt>
<pdfrwt beam="2">  1       -2 0.23450073E+00 0.46897871E+04</pdfrwt>
<totfact> 0.40687818E-02</totfact>
</mgrwt>
</event>
<event>
 8      1 +1.2359593e-08 4.97576100e+03 7.81860800e-03 7.83225700e-02
       -2 -1    0    0    0  501 -0.0000000000e+00 +0.0000000000e+00 +1.7769082959e+03 1.7769082959e+03 2.5500000000e-03 0.0000e+00 -1.0000e+00
        2 -1    0    0  501    0 +0.0000000000e+00 -0.0000000000e+00 -3.4833245042e+03 3.4833245042e+03 2.5500000000e-03 0.0000e+00 1.0000e+00
  1000011  2    1    2    0    0 -5.7367234708e+02 -5.0983589604e+02 -7.8097609439e+01 2.3786710747e+03 2.2500987183e+03 4.4194e+01 0.0000e+00
 -1000011  2    1    2    0    0 +5.7367234708e+02 +5.0983589604e+02 -1.6283185989e+03 2.8815617254e+03 2.2500986456e+03 1.8316e+03 0.0000e+00
       11  1    3    3    0    0 -1.1623574386e-01 +1.7807607209e-02 -7.8351886569e-03 1.1785376514e-01 5.1100000000e-04 0.0000e+00 1.0000e+00
  1000022  1    3    3    0    0 -5.7355611134e+02 -5.0985370365e+02 -7.8089774250e+01 2.3785532209e+03 2.2500000000e+03 0.0000e+00 0.0000e+00
      -11  1    4    4    0    0 -4.0127116572e-02 -3.3580864382e-02 +1.5220601831e-02 5.4495756153e-02 5.1100000000e-04 0.0000e+00 -1.0000e+00
  1000022  1    4    4    0    0 +5.7371247420e+02 +5.0986947691e+02 -1.6283338195e+03 2.8815072296e+03 2.2500000000e+03 0.0000e+00 0.0000e+00
<mgrwt>
<rscale>  0 0.49757605E+04</rscale>
<asrwt>0</asrwt>
<pdfrwt beam="1">  1        2 0.53589608E+00 0.49757605E+04</pdfrwt>
<pdfrwt beam="2">  1       -2 0.27337051E+00 0.49757605E+04</pdfrwt>
<totfact> 0.28102786E-02</totfact>
</mgrwt>
</event>
<event>
 8      1 +1.2359593e-08 7.72493200e+03 7.81860800e-03 7.50696800e-02
        2 -1    0    0  501    0 +0.0000000000e+00 +0.0000000000e+00 +2.9400504173e+03 2.9400504173e+03 2.5500000000e-03 0.0000e+00 1.0000e+00
       -2 -1    0    0    0  501 -0.0000000000e+00 -0.0000000000e+00 -5.0742813993e+03 5.0742813993e+03 2.5500000000e-03 0.0000e+00 -1.0000e+00
  1000011  2    1    2    0    0 +5.5507622960e+02 -1.2567805042e+03 -3.9956461150e+03 4.7870391494e+03 2.2500997946e+03 4.1601e+02 0.0000e+00
 -1000011  2    1    2    0    0 -5.5507622960e+02 +1.2567805042e+03 +1.8614151330e+03 3.2272926671e+03 2.2500988434e+03 4.6663e+02 0.0000e+00
       11  1    3    3    0    0 -7.7455244533e-02 -5.1083491970e-02 -1.5749951028e-01 1.8279823436e-01 5.1100000000e-04 0.0000e+00 1.0000e+00
  1000022  1    3    3    0    0 +5.5515368484e+02 -1.2567294208e+03 -3.9954886155e+03 4.7868563512e+03 2.2500000000e+03 0.0000e+00 0.0000e+00
      -11  1    4    4    0    0 +6.3628089371e-02 +2.9006442219e-02 +1.1691904075e-03 6.9939513138e-02 5.1100000000e-04 0.0000e+00 -1.0000e+00
  1000022  1    4    4    0    0 -5.5513985769e+02 +1.2567514978e+03 +1.8614139638e+03 3.2272227276e+03 2.2500000000e+03 0.0000e+00 0.0000e+00
<mgrwt>
<rscale>  0 0.77249319E+04</rscale>
<asrwt>0</asrwt>
<pdfrwt beam="1">  1        2 0.45231545E+00 0.77249319E+04</pdfrwt>
<pdfrwt beam="2">  1       -2 0.78065868E+00 0.77249319E+04</pdfrwt>
<totfact> 0.11515306E-04</totfact>
</mgrwt>
</event>
<event>
 8      1 +1.2359593e-08 5.51231300e+03 7.81860800e-03 7.75399700e-02
       -2 -1    0    0    0  501 -0.0000000000e+00 +0.0000000000e+00 +2.3479874377e+03 2.3479874377e+03 2.5500000000e-03 0.0000e+00 -1.0000e+00
        2 -1    0    0  501    0 +0.0000000000e+00 -0.0000000000e+00 -3.2352804686e+03 3.2352804686e+03 2.5500000000e-03 0.0000e+00 1.0000e+00
  1000011  2    1    2    0    0 -1.4029046646e+03 +4.9092747435e+02 +1.3315837932e+02 2.6999701298e+03 2.2501013899e+03 8.8287e+02 0.0000e+00
 -1000011  2    1    2    0    0 +1.4029046646e+03 -4.9092747435e+02 -1.0204514102e+03 2.8832977765e+03 2.2500963766e+03 1.3281e+02 0.0000e+00
       11  1    3    3    0    0 -2.5189491870e-02 +9.0777760117e-02 -5.9034049078e-02 1.1117729904e-01 5.1100000000e-04 0.0000e+00 1.0000e+00
  1000022  1    3    3    0    0 -1.4028794751e+03 +4.9083669659e+02 +1.3321741337e+02 2.6998589525e+03 2.2500000000e+03 0.0000e+00 0.0000e+00
      -11  1    4    4    0    0 +7.5467740878e-02 +7.4561151811e-02 -3.8446955288e-02 1.1284136884e-01 5.1100000000e-04 0.0000e+00 -1.0000e+00
  1000022  1    4    4    0    0 +1.4028291968e+03 -4.9100203550e+02 -1.0204129633e+03 2.8831849351e+03 2.2500000000e+03 0.0000e+00 0.0000e+00
<mgrwt>
<rscale>  0 0.55123127E+04</rscale>
<asrwt>0</asrwt>
<pdfrwt beam="1">  1        2 0.49773546E+00 0.55123127E+04</pdfrwt>
<pdfrwt beam="2">  1       -2 0.36122884E+00 0.55123127E+04</pdfrwt>
<totfact> 0.11343681E-02</totfact>
</mgrwt>
</event>
<event>
 8      1 +1.2359593e-08 6.14649400e+03 7.81860800e-03 7.67249900e-02
       -1 -1    0    0    0  501 -0.0000000000e+00 +0.0000000000e+00 +2.0406212737e+03 2.0406212738e+03 5.0400000000e-03 0.0000e+00 1.0000e+00
        1 -1    0    0  501    0 +0.0000000000e+00 -0.0000000000e+00 -4.6284177450e+03 4.6284177450e+03 5.0400000000e-03 0.0000e+00 -1.0000e+00
  1000011  2    1    2    0    0 -1.7841813236e+03 +8.0893765737e+02 -4.9347612266e+02 3.0239297321e+03 2.2500998227e+03 1.6453e+02 0.0000e+00
 -1000011  2    1    2    0    0 +1.7841813236e+03 -8.0893765737e+02 -2.0943203486e+03 3.6451092867e+03 2.2501024111e+03 7.1941e+02 0.0000e+00
       11  1    3    3    0    0 +3.2271945589e-04 -5.8709226467e-02 -1.7262160823e-02 6.1197387703e-02 5.1100000000e-04 0.0000e+00 1.0000e+00
  1000022  1    3    3    0    0 -1.7841816463e+03 +8.0899636659e+02 -4.9345886050e+02 3.0238685347e+03 2.2500000000e+03 0.0000e+00 0.0000e+00
      -11  1    4    4    0    0 +1.6857515972e-01 +1.7340708621e-02 -1.6627607680e-01 2.3741583582e-01 5.1100000000e-04 0.0000e+00 -1.0000e+00
  1000022  1    4    4    0    0 +1.7840127484e+03 -8.0895499808e+02 -2.0941540726e+03 3.6448718709e+03 2.2500000000e+03 0.0000e+00 0.0000e+00
<mgrwt>
<rscale>  0 0.61464942E+04</rscale>
<asrwt>0</asrwt>
<pdfrwt beam="1">  1        1 0.71206426E+00 0.61464942E+04</pdfrwt>
<pdfrwt beam="2">  1       -1 0.31394174E+00 0.61464942E+04</pdfrwt>
<totfact> 0.41334641E-04</totfact>
</mgrwt>
</event>
<event>
 8      1 +1.2359593e-08 5.27276900e+03 7.81860800e-03 7.78775400e-02
        2 -1    0    0  501    0 +0.0000000000e+00 +0.0000000000e+00 +3.8460130509e+03 3.8460130509e+03 2.5500000000e-03 0.0000e+00 1.0000e+00
       -2 -1    0    0    0  501 -0.0000000000e+00 -0.0000000000e+00 -1.8072022807e+03 1.8072022807e+03 2.5500000000e-03 0.0000e+00 -1.0000e+00
  1000011  2    1    2    0    0 -4.1452214716e+02 -9.2639062783e+02 +2.0122630677e+03 3.1846820438e+03 2.2501041888e+03 2.1582e+03 0.0000e+00
 -1000011  2    1    2    0    0 +4.1452214716e+02 +9.2639062783e+02 +2.6547702508e+01 2.4685332879e+03 2.2500941329e+03 1.8570e+03 0.0000e+00
       11  1    3    3    0    0 +5.1339904757e-02 -5.3233921540e-02 +1.8524363546e-01 1.9946202973e-01 5.1100000000e-04 0.0000e+00 1.0000e+00
  1000022  1    3    3    0    0 -4.1457348706e+02 -9.2633739391e+02 +2.0120778240e+03 3.1844825818e+03 2.2500000000e+03 0.0000e+00 0.0000e+00
      -11  1    4    4    0    0 -7.6826781024e-02 +1.5639718965e-02 -6.7797042201e-03 7.8696761563e-02 5.1100000000e-04 0.0000e+00 -1.0000e+00
  1000022  1    4    4    0    0 +4.1459897394e+02 +9.2637498811e+02 +2.6554482212e+01 2.4684545911e+03 2.2500000000e+03 0.0000e+00 0.0000e+00
<mgrwt>
<rscale>  0 0.52727691E+04</rscale>
<asrwt>0</asrwt>
<pdfrwt beam="1">  1        2 0.59169431E+00 0.52727691E+04</pdfrwt>
<pdfrwt beam="2">  1       -2 0.27803112E+00 0.52727691E+04</pdfrwt>
<totfact> 0.13914005E-02</totfact>
</mgrwt>
</event>
<event>
 8      1 +1.2359593e-08 4.61859800e+03 7.81860800e-03 7.89019600e-02
        2 -1    0    0  501    0 +0.0000000000e+00 +0.0000000000e+00 +2.4264407798e+03 2.4264407798e+03 2.5500000000e-03 0.0000e+00 1.0000e+00
       -2 -1    0    0    0  501 -0.0000000000e+00 -0.0000000000e+00 -2.1978125802e+03 2.1978125802e+03 2.5500000000e-03 0.0000e+00 -1.0000e+00
  1000011  2    1    2    0    0 -3.0106306345e+02 -4.2128379302e+02 +1.5661135579e+02 2.3142173879e+03 2.2501013309e+03 1.7345e+03 0.0000e+00
 -1000011  2    1    2    0    0 +3.0106306345e+02 +4.2128379302e+02 +7.2016843869e+01 2.3100359721e+03 2.2501023897e+03 4.0529e+02 0.0000e+00
       11  1    3    3    0    0 +4.1802695287e-02 -9.1007842378e-02 +5.2817229090e-02 1.1322461341e-01 5.1100000000e-04 0.0000e+00 1.0000e+00
  1000022  1    3    3    0    0 -3.0110486614e+02 -4.2119278518e+02 +1.5655853856e+02 2.3141041633e+03 2.2500000000e+03 0.0000e+00 0.0000e+00
      -11  1    4    4    0    0 +9.3024196215e-02 -4.1713749389e-02 -1.8763448728e-02 1.0366226853e-01 5.1100000000e-04 0.0000e+00 -1.0000e+00
  1000022  1    4    4    0    0 +3.0097003925e+02 +4.2132550677e+02 +7.2035607318e+01 2.3099323098e+03 2.2500000000e+03 0.0000e+00 0.0000e+00
<mgrwt>
<rscale>  0 0.46185981E+04</rscale>
<asrwt>0</asrwt>
<pdfrwt beam="1">  1        2 0.37329858E+00 0.46185981E+04</pdfrwt>
<pdfrwt beam="2">  1       -2 0.33812501E+00 0.46185981E+04</pdfrwt>
<totfact> 0.53223409E-02</totfact>
</mgrwt>
</event>
<event>
 8      1 +1.2359593e-08 5.11487800e+03 7.81860800e-03 7.81102700e-02
       -1 -1    0    0    0  501 -0.0000000000e+00 +0.0000000000e+00 +2.3131243918e+03 2.3131243918e+03 5.0400000000e-03 0.0000e+00 -1.0000e+00
        1 -1    0    0  501    0 +0.0000000000e+00 -0.0000000000e+00 -2.8275582829e+03 2.8275582829e+03 5.0400000000e-03 0.0000e+00 1.0000e+00
  1000011  2    1    2    0    0 -5.8386416411e+02 +7.5051778828e+02 -1.0182477310e+03 2.6464979893e+03 2.2500997429e+03 3.8439e+01 0.0000e+00
 -1000011  2    1    2    0    0 +5.8386416411e+02 -7.5051778828e+02 +5.0381383999e+02 2.4941846854e+03 2.2501010081e+03 1.1556e+03 0.0000e+00
       11  1    3    3    0    0 -6.1867120743e-02 +1.0367400644e-01 -1.3129813888e-01 1.7836844549e-01 5.1100000000e-04 0.0000e+00 1.0000e+00
  1000022  1    3    3    0    0 -5.8380229699e+02 +7.5041411427e+02 -1.0181164329e+03 2.6463196209e+03 2.2500000000e+03 0.0000e+00 0.0000e+00
      -11  1    4    4    0    0 +8.0699808761e-02 -8.3067140029e-02 -4.7906115053e-02 1.2533102420e-01 5.1100000000e-04 0.0000e+00 -1.0000e+00
  1000022  1    4    4    0    0 +5.8378346431e+02 -7.5043472114e+02 +5.0386174610e+02 2.4940593544e+03 2.2500000000e+03 0.0000e+00 0.0000e+00
<mgrwt>
<rscale>  0 0.51148779E+04</rscale>
<asrwt>0</asrwt>
<pdfrwt beam="1">  1        1 0.43500896E+00 0.51148779E+04</pdfrwt>
<pdfrwt beam="2">  1       -1 0.35586529E+00 0.51148779E+04</pdfrwt>
<totfact> 0.80948180E-03</totfact>
</mgrwt>
</event>
<event>
 8      1 +1.2359593e-08 4.99044100e+03 7.81860800e-03 7.82998300e-02
       -2 -1    0    0    0  501 -0.0000000000e+00 +0.0000000000e+00 +2.6904851785e+03 2.6904851785e+03 2.5500000000e-03 0.0000e+00 -1.0000e+00
        2 -1    0    0  501    0 +0.0000000000e+00 -0.0000000000e+00 -2.3141273256e+03 2.3141273256e+03 2.5500000000e-03 0.0000e+00 1.0000e+00
  1000011  2    1    2    0    0 +1.1080042835e+02 -9.8279450018e+02 +6.1952213556e+02 2.5347437577e+03 2.2501014368e+03 1.0789e+03 0.0000e+00
 -1000011  2    1    2    0    0 -1.1080042835e+02 +9.8279450018e+02 -2.4316428259e+02 2.4698687465e+03 2.2501024403e+03 6.7681e+00 0.0000e+00
       11  1    3    3    0    0 +5.5009097724e-02 +6.0359045286e-03 -5.3562170153e-02 7.7016878884e-02 5.1100000000e-04 0.0000e+00 1.0000e+00
  1000022  1    3    3    0    0 +1.1074541925e+02 -9.8280053608e+02 +6.1957569773e+02 2.5346667408e+03 2.2500000000e+03 0.0000e+00 0.0000e+00
      -11  1    4    4    0    0 -6.2230506439e-02 -7.8495603063e-03 +6.0357528569e-02 8.7049084734e-02 5.1100000000e-04 0.0000e+00 -1.0000e+00
  1000022  1    4    4    0    0 -1.1073819785e+02 +9.8280234974e+02 -2.4322464012e+02 2.4697816974e+03 2.2500000000e+03 0.0000e+00 0.0000e+00
<mgrwt>
<rscale>  0 0.49904410E+04</rscale>
<asrwt>0</asrwt>
<pdfrwt beam="1">  1        2 0.35601959E+00 0.49904410E+04</pdfrwt>
<pdfrwt beam="2">  1       -2 0.41392080E+00 0.49904410E+04</pdfrwt>
<totfact> 0.19520588E-02</totfact>
</mgrwt>
</event>
<event>
 8      1 +1.2359593e-08 5.10431600e+03 7.81860800e-03 7.81261400e-02
        2 -1    0    0  501    0 +0.0000000000e+00 +0.0000000000e+00 +2.3958674123e+03 2.3958674123e+03 2.5500000000e-03 0.0000e+00 1.0000e+00
       -2 -1    0    0    0  501 -0.0000000000e+00 -0.0000000000e+00 -2.7186440698e+03 2.7186440698e+03 2.5500000000e-03 0.0000e+00 -1.0000e+00
  1000011  2    1    2    0    0 -1.0705346574e+03 +5.1907984780e+02 -3.4903752965e+02 2.5690975040e+03 2.2500992083e+03 8.8733e+02 0.0000e+00
 -1000011  2    1    2    0    0 +1.0705346574e+03 -5.1907984780e+02 +2.6260872112e+01 2.5454139781e+03 2.2501009634e+03 1.2911e+02 0.0000e+00
       11  1    3    3    0    0 -2.0727654025e-02 -3.3755420133e-02 +6.8767815487e-02 7.9362065144e-02 5.1100000000e-04 0.0000e+00 1.0000e+00
  1000022  1    3    3    0    0 -1.0705139297e+03 +5.1911360322e+02 -3.4910629747e+02 2.5690181419e+03 2.2500000000e+03 0.0000e+00 0.0000e+00
      -11  1    4    4    0    0 +4.2152982694e-02 +2.0795229314e-02 -9.0302057696e-02 1.0180391754e-01 5.1100000000e-04 0.0000e+00 -1.0000e+00
  1000022  1    4    4    0    0 +1.0704925044e+03 -5.1910064303e+02 +2.6351174170e+01 2.5453121742e+03 2.2500000000e+03 0.0000e+00 0.0000e+00
<mgrwt>
<rscale>  0 0.51043161E+04</rscale>
<asrwt>0</asrwt>
<pdfrwt beam="1">  1        2 0.36859499E+00 0.51043161E+04</pdfrwt>
<pdfrwt beam="2">  1       -2 0.41825293E+00 0.51043161E+04</pdfrwt>
<totfact> 0.16273187E-02</totfact>
</mgrwt>
</event>
<event>
 8      1 +1.2359593e-08 4.97727600e+03 7.81860800e-03 7.83202200e-02
       -2 -1    0    0    0  501 -0.0000000000e+00 +0.0000000000e+00 +3.0126539288e+03 3.0126539288e+03 2.5500000000e-03 0.0000e+00 -1.0000e+00
        2 -1    0    0  501    0 +0.0000000000e+00 -0.0000000000e+00 -2.0557681840e+03 2.0557681840e+03 2.5500000000e-03 0.0000e+00 1.0000e+00
  1000011  2    1    2    0    0 +5.1847871333e+02 +5.9802059151e+01 -4.6478671151e+02 2.3561339533e+03 2.2500986770e+03 1.4902e+02 0.0000e+00
 -1000011  2    1    2    0    0 -5.1847871333e+02 -5.9802059151e+01 +1.4216724563e+03 2.7122881595e+03 2.2501017810e+03 1.0459e+02 0.0000e+00
       11  1    3    3    0    0 +4.4866348901e-02 -8.4405188655e-02 +2.0884435079e-02 9.7845008359e-02 5.1100000000e-04 0.0000e+00 1.0000e+00
  1000022  1    3    3    0    0 +5.1843384698e+02 +5.9886464340e+01 -4.6480759595e+02 2.3560361083e+03 2.2500000000e+03 0.0000e+00 0.0000e+00
      -11  1    4    4    0    0 -1.1277411007e-01 +4.7061595268e-02 +9.4623834060e-02 1.5455330530e-01 5.1100000000e-04 0.0000e+00 -1.0000e+00
  1000022  1    4    4    0    0 -5.1836593921e+02 -5.9849120747e+01 +1.4215778325e+03 2.7121336062e+03 2.2500000000e+03 0.0000e+00 0.0000e+00
<mgrwt>
<rscale>  0 0.49772756E+04</rscale>
<asrwt>0</asrwt>
<pdfrwt beam="1">  1        2 0.31627203E+00 0.49772756E+04</pdfrwt>
<pdfrwt beam="2">  1       -2 0.46348522E+00 0.49772756E+04</pdfrwt>
<totfact> 0.12877197E-02</totfact>
</mgrwt>
</event>
<event>
 8      1 +1.2359593e-08 4.70728900e+03 7.81860800e-03 7.87531900e-02
       -2 -1    0    0    0  501 -0.0000000000e+00 +0.0000000000e+00 +1.9142594381e+03 1.9142594381e+03 2.5500000000e-03 0.0000e+00 -1.0000e+00
        2 -1    0    0  501    0 +0.0000000000e+00 -0.0000000000e+00 -2.8938826988e+03 2.8938826988e+03 2.5500000000e-03 0.0000e+00 1.0000e+00
  1000011  2    1    2    0    0 +2.2814708069e+02 +3.6241040144e+02 +6.3366618543e+01 2.2913620148e+03 2.2500960346e+03 2.2095e+03 0.0000e+00
 -1000011  2    1    2    0    0 -2.2814708069e+02 -3.6241040144e+02 -1.0429898792e+03 2.5167801221e+03 2.2501026432e+03 0.0000e+00 0.0000e+00
       11  1    3    3    0    0 +8.7489550841e-02 +7.1142149621e-02 -1.5577283493e-02 1.1383558047e-01 5.1100000000e-04 0.0000e+00 1.0000e+00
  1000022  1    3    3    0    0 +2.2805959114e+02 +3.6233925929e+02 +6.3382195827e+01 2.2912481792e+03 2.2500000000e+03 0.0000e+00 0.0000e+00
      -11  1    4    4    0    0 -1.0441439520e-01 -3.3581408306e-02 -9.7773465398e-03 1.1011781880e-01 5.1100000000e-04 0.0000e+00 -1.0000e+00
  1000022  1    4    4    0    0 -2.2804266630e+02 -3.6237682003e+02 -1.0429801019e+03 2.5166700042e+03 2.2500000000e+03 0.0000e+00 0.0000e+00
<mgrwt>
<rscale>  0 0.47072889E+04</rscale>
<asrwt>0</asrwt>
<pdfrwt beam="1">  1        2 0.44521272E+00 0.47072889E+04</pdfrwt>
<pdfrwt beam="2">  1       -2 0.29450145E+00 0.47072889E+04</pdfrwt>
<totfact> 0.51843851E-02</totfact>
</mgrwt>
</event>
<event>
 8      1 +1.2359593e-08 5.08949500e+03 7.81860800e-03 7.81484800e-02
       -2 -1    0    0    0  501 -0.0000000000e+00 +0.0000000000e+00 +2.1465359576e+03 2.1465359576e+03 2.5500000000e-03 0.0000e+00 -1.0000e+00
        2 -1    0    0  501    0 +0.0000000000e+00 -0.0000000000e+00 -3.0168332035e+03 3.0168332035e+03 2.5500000000e-03 0.0000e+00 1.0000e+00
  1000011  2    1    2    0    0 -8.0144473900e+01 +8.8267148131e+00 +7.6793200303e+02 2.3789050557e+03 2.2501041431e+03 1.7927e+03 0.0000e+00
 -1000011  2    1    2    0    0 +8.0144473900e+01 -8.8267148131e+00 -1.6382292489e+03 2.7844641054e+03 2.2500987166e+03 5.6384e+02 0.0000e+00
       11  1    3    3    0    0 +3.8978206898e-02 -7.5816120552e-02 -2.4995025564e-02 8.8839162539e-02 5.1100000000e-04 0.0000e+00 1.0000e+00
  1000022  1    3    3    0    0 -8.0183452107e+01 +8.9025309337e+00 +7.6795699806e+02 2.3788162165e+03 2.2500000000e+03 0.0000e+00 0.0000e+00
      -11  1    4    4    0    0 -6.7708679173e-02 -6.1891804052e-02 -1.0717383323e-01 1.4107285995e-01 5.1100000000e-04 0.0000e+00 -1.0000e+00
  1000022  1    4    4    0    0 +8.0212182579e+01 -8.7648230091e+00 -1.6381220751e+03 2.7843230325e+03 2.2500000000e+03 0.0000e+00 0.0000e+00
<mgrwt>
<rscale>  0 0.50894954E+04</rscale>
<asrwt>0</asrwt>
<pdfrwt beam="1">  1        2 0.46412819E+00 0.50894954E+04</pdfrwt>
<pdfrwt beam="2">  1       -2 0.33023630E+00 0.50894954E+04</pdfrwt>
<totfact> 0.25400392E-02</totfact>
</mgrwt>
</event>
<event>
 8      1 +1.2359593e-08 4.81151300e+03 7.81860800e-03 7.85826000e-02
       -1 -1    0    0    0  501 -0.0000000000e+00 +0.0000000000e+00 +3.1298885710e+03 3.1298885710e+03 5.0400000000e-03 0.0000e+00 -1.0000e+00
        1 -1    0    0  501    0 +0.0000000000e+00 -0.0000000000e+00 -1.8491600151e+03 1.8491600152e+03 5.0400000000e-03 0.0000e+00 1.0000e+00
  1000011  2    1    2    0    0 -6.5069347763e+02 -2.8780180543e+02 +1.1240777651e+03 2.6139446678e+03 2.2500942254e+03 9.7144e+02 0.0000e+00
 -1000011  2    1    2    0    0 +6.5069347763e+02 +2.8780180543e+02 +1.5665079074e+02 2.3651039183e+03 2.2500989297e+03 2.6323e+03 0.0000e+00
       11  1    3    3    0    0 -5.6324061219e-02 -9.0049812073e-02 +1.0803069791e-01 1.5150003494e-01 5.1100000000e-04 0.0000e+00 1.0000e+00
  1000022  1    3    3    0    0 -6.5063715357e+02 -2.8771175561e+02 +1.1239697344e+03 2.6137931677e+03 2.2500000000e+03 0.0000e+00 0.0000e+00
      -11  1    4    4    0    0 -1.8527406260e-02 +5.8622378421e-02 +8.0763049941e-02 1.0150260698e-01 5.1100000000e-04 0.0000e+00 -1.0000e+00
  1000022  1    4    4    0    0 +6.5071200504e+02 +2.8774318305e+02 +1.5657002769e+02 2.3650024157e+03 2.2500000000e+03 0.0000e+00 0.0000e+00
<mgrwt>
<rscale>  0 0.48115132E+04</rscale>
<asrwt>0</asrwt>
<pdfrwt beam="1">  1        1 0.28448616E+00 0.48115132E+04</pdfrwt>
<pdfrwt beam="2">  1       -1 0.48152132E+00 0.48115132E+04</pdfrwt>
<totfact> 0.54730349E-03</totfact>
</mgrwt>
</event>
<event>
 8      1 +1.2359593e-08 4.96106000e+03 7.81860800e-03 7.83454200e-02
       -2 -1    0    0    0  501 -0.0000000000e+00 +0.0000000000e+00 +2.5710417073e+03 2.5710417073e+03 2.5500000000e-03 0.0000e+00 -1.0000e+00
        2 -1    0    0  501    0 +0.0000000000e+00 -0.0000000000e+00 -2.3932043256e+03 2.3932043256e+03 2.5500000000e-03 0.0000e+00 1.0000e+00
  1000011  2    1    2    0    0 +8.6058909928e+02 -4.6542161846e+02 +4.5362968008e+02 2.4951879408e+03 2.2501004627e+03 8.2099e+02 0.0000e+00
 -1000011  2    1    2    0    0 -8.6058909928e+02 +4.6542161846e+02 -2.7579229843e+02 2.4690580921e+03 2.2501012399e+03 1.7288e+03 0.0000e+00
       11  1    3    3    0    0 +4.0225731712e-02 +7.4123419654e-02 +5.4873055779e-02 1.0061661815e-01 5.1100000000e-04 0.0000e+00 1.0000e+00
  1000022  1    3    3    0    0 +8.6054887355e+02 -4.6549574188e+02 +4.5357480703e+02 2.4950873241e+03 2.2500000000e+03 0.0000e+00 0.0000e+00
      -11  1    4    4    0    0 -4.3194236256e-02 -1.1665918463e-02 +8.4562141681e-02 9.5670539709e-02 5.1100000000e-04 0.0000e+00 -1.0000e+00
  1000022  1    4    4    0    0 -8.6054590505e+02 +4.6543328437e+02 -2.7587686057e+02 2.4689624216e+03 2.2500000000e+03 0.0000e+00 0.0000e+00
<mgrwt>
<rscale>  0 0.49610596E+04</rscale>
<asrwt>0</asrwt>
<pdfrwt beam="1">  1        2 0.36818528E+00 0.49610596E+04</pdfrwt>
<pdfrwt beam="2">  1       -2 0.39554488E+00 0.49610596E+04</pdfrwt>
<totfact> 0.23263821E-02</totfact>
</mgrwt>
</event>
<event>
 8      1 +1.2359593e-08 4.65318900e+03 7.81860800e-03 7.88435300e-02
        2 -1    0    0  501    0 +0.0000000000e+00 +0.0000000000e+00 +2.9063833055e+03 2.9063833055e+03 2.5500000000e-03 0.0000e+00 1.0000e+00
       -2 -1    0    0    0  501 -0.0000000000e+00 -0.0000000000e+00 -1.8624668240e+03 1.8624668241e+03 2.5500000000e-03 0.0000e+00 -1.0000e+00
  1000011  2    1    2    0    0 -4.9387818600e+02 +2.6443491306e+02 +3.2682151826e+02 2.3417083871e+03 2.2500987489e+03 8.1690e+02 0.0000e+00
 -1000011  2    1    2    0    0 +4.9387818600e+02 -2.6443491306e+02 +7.1709496322e+02 2.4271417425e+03 2.2501000791e+03 5.0308e+02 0.0000e+00
       11  1    3    3    0    0 +6.4901778394e-02 -1.9219583462e-02 -3.1444165220e-02 7.4636649195e-02 5.1100000000e-04 0.0000e+00 1.0000e+00
  1000022  1    3    3    0    0 -4.9394308778e+02 +2.6445413264e+02 +3.2685296242e+02 2.3416337505e+03 2.2500000000e+03 0.0000e+00 0.0000e+00
      -11  1    4    4    0    0 -2.0140178334e-02 -4.0470555231e-03 -6.6395996213e-02 6.9503198150e-02 5.1100000000e-04 0.0000e+00 -1.0000e+00
  1000022  1    4    4    0    0 +4.9389832618e+02 -2.6443086600e+02 +7.1716135921e+02 2.4270722393e+03 2.2500000000e+03 0.0000e+00 0.0000e+00
<mgrwt>
<rscale>  0 0.46531892E+04</rscale>
<asrwt>0</asrwt>
<pdfrwt beam="1">  1        2 0.44713589E+00 0.46531892E+04</pdfrwt>
<pdfrwt beam="2">  1       -2 0.28653336E+00 0.46531892E+04</pdfrwt>
<totfact> 0.57223529E-02</totfact>
</mgrwt>
</event>
<event>
 8      1 +1.2359593e-08 4.89040700e+03 7.81860800e-03 7.84563900e-02
       -1 -1    0    0    0  501 -0.0000000000e+00 +0.0000000000e+00 +2.4042330544e+03 2.4042330544e+03 5.0400000000e-03 0.0000e+00 -1.0000e+00
        1 -1    0    0  501    0 +0.0000000000e+00 -0.0000000000e+00 -2.4868723559e+03 2.4868723559e+03 5.0400000000e-03 0.0000e+00 1.0000e+00
  1000011  2    1    2    0    0 -3.7968756766e+01 +8.7147999851e+02 +3.5255360108e+02 2.4389100624e+03 2.2501264934e+03 3.2468e+02 0.0000e+00
 -1000011  2    1    2    0    0 +3.7968756766e+01 -8.7147999851e+02 -4.3519290261e+02 2.4521953480e+03 2.2501000306e+03 7.1160e+02 0.0000e+00
       11  1    3    3    0    0 +1.1041717160e-01 -2.9777750300e-03 -1.5971427123e-02 1.1160719664e-01 5.1100000000e-04 0.0000e+00 1.0000e+00
  1000022  1    3    3    0    0 -3.8079173937e+01 +8.7148297629e+02 +3.5256957250e+02 2.4387984552e+03 2.2500000000e+03 0.0000e+00 0.0000e+00
      -11  1    4    4    0    0 +9.9705445792e-02 -6.0805072196e-02 -2.2355909810e-02 1.1890534000e-01 5.1100000000e-04 0.0000e+00 -1.0000e+00
  1000022  1    4    4    0    0 +3.7869051320e+01 -8.7141919344e+02 -4.3517054670e+02 2.4520764426e+03 2.2500000000e+03 0.0000e+00 0.0000e+00
<mgrwt>
<rscale>  0 0.48904072E+04</rscale>
<asrwt>0</asrwt>
<pdfrwt beam="1">  1        1 0.38259575E+00 0.48904072E+04</pdfrwt>
<pdfrwt beam="2">  1       -1 0.36988201E+00 0.48904072E+04</pdfrwt>
<totfact> 0.11534396E-02</totfact>
</mgrwt>
</event>
<event>
 8      1 +1.2359593e-08 4.74788000e+03 7.81860800e-03 7.86862100e-02
       -2 -1    0    0    0  501 -0.0000000000e+00 +0.0000000000e+00 +2.2545392327e+03 2.2545392327e+03 2.5500000000e-03 0.0000e+00 -1.0000e+00
        2 -1    0    0  501    0 +0.0000000000e+00 -0.0000000000e+00 -2.4996645339e+03 2.4996645339e+03 2.5500000000e-03 0.0000e+00 1.0000e+00
  1000011  2    1    2    0    0 -5.2727971125e+01 +2.9839759355e+02 -8.1689537983e+02 2.4129024878e+03 2.2501019958e+03 3.6397e+03 0.0000e+00
 -1000011  2    1    2    0    0 +5.2727971125e+01 -2.9839759355e+02 +5.7177007865e+02 2.3413012787e+03 2.2500998405e+03 6.0846e+02 0.0000e+00
       11  1    3    3    0    0 -1.8395587016e-02 +4.5353800149e-02 -1.4034819342e-01 1.4863795295e-01 5.1100000000e-04 0.0000e+00 1.0000e+00
  1000022  1    3    3    0    0 -5.2709575538e+01 +2.9835223975e+02 -8.1675503164e+02 2.4127538499e+03 2.2500000000e+03 0.0000e+00 0.0000e+00
      -11  1    4    4    0    0 +9.6514791550e-02 -2.1894243356e-02 +5.9376673830e-02 1.1541365986e-01 5.1100000000e-04 0.0000e+00 -1.0000e+00
  1000022  1    4    4    0    0 +5.2631456333e+01 -2.9837569930e+02 +5.7171070198e+02 2.3411858651e+03 2.2500000000e+03 0.0000e+00 0.0000e+00
<mgrwt>
<rscale>  0 0.47478803E+04</rscale>
<asrwt>0</asrwt>
<pdfrwt beam="1">  1        2 0.38456377E+00 0.47478803E+04</pdfrwt>
<pdfrwt beam="2">  1       -2 0.34685219E+00 0.47478803E+04</pdfrwt>
<totfact> 0.42126326E-02</totfact>
</mgrwt>
</event>
<event>
 8      1 +1.2359593e-08 4.62139500e+03 7.81860800e-03 7.88972200e-02
       -2 -1    0    0    0  501 -0.0000000000e+00 +0.0000000000e+00 +1.3232482900e+03 1.3232482900e+03 2.5500000000e-03 0.0000e+00 -1.0000e+00
        2 -1    0    0  501    0 +0.0000000000e+00 -0.0000000000e+00 -4.0350129386e+03 4.0350129386e+03 2.5500000000e-03 0.0000e+00 1.0000e+00
  1000011  2    1    2    0    0 +4.1849672345e+02 -2.5133967051e+02 -1.1296969741e+03 2.5646609936e+03 2.2501021358e+03 8.9817e+02 0.0000e+00
 -1000011  2    1    2    0    0 -4.1849672345e+02 +2.5133967051e+02 -1.5820676745e+03 2.7936002350e+03 2.2501006664e+03 1.1737e+03 0.0000e+00
       11  1    3    3    0    0 -7.1403844720e-02 +3.6247103018e-02 -1.6881349943e-02 8.1838878855e-02 5.1100000000e-04 0.0000e+00 1.0000e+00
  1000022  1    3    3    0    0 +4.1856812730e+02 -2.5137591761e+02 -1.1296800927e+03 2.5645791548e+03 2.2500000000e+03 0.0000e+00 0.0000e+00
      -11  1    4    4    0    0 +8.1787664224e-02 -7.1779592882e-03 -4.4553281108e-02 9.3413063832e-02 5.1100000000e-04 0.0000e+00 -1.0000e+00
  1000022  1    4    4    0    0 -4.1857851112e+02 +2.5134684847e+02 -1.5820231213e+03 2.7935068220e+03 2.2500000000e+03 0.0000e+00 0.0000e+00
<mgrwt>
<rscale>  0 0.46213954E+04</rscale>
<asrwt>0</asrwt>
<pdfrwt beam="1">  1        2 0.62077121E+00 0.46213954E+04</pdfrwt>
<pdfrwt beam="2">  1       -2 0.20357666E+00 0.46213954E+04</pdfrwt>
<totfact> 0.30153807E-02</totfact>
</mgrwt>
</event>
<event>
 8      1 +1.2359593e-08 4.92322000e+03 7.81860800e-03 7.84046200e-02
       -2 -1    0    0    0  501 -0.0000000000e+00 +0.0000000000e+00 +1.9151005446e+03 1.9151005446e+03 2.5500000000e-03 0.0000e+00 -1.0000e+00
        2 -1    0    0  501    0 +0.0000000000e+00 -0.0000000000e+00 -3.1640759732e+03 3.1640759732e+03 2.5500000000e-03 0.0000e+00 1.0000e+00
  1000011  2    1    2    0    0 -2.2772986016e+02 +9.4996910791e+02 -8.3660871035e+02 2.5917499956e+03 2.2501003778e+03 3.2224e+03 0.0000e+00
 -1000011  2    1    2    0    0 +2.2772986016e+02 -9.4996910791e+02 -4.1236671821e+02 2.4874265222e+03 2.2500982641e+03 5.6756e+02 0.0000e+00
       11  1    3    3    0    0 +2.2794720919e-02 -6.1069098866e-02 -9.7932402886e-03 6.5918150246e-02 5.1100000000e-04 0.0000e+00 1.0000e+00
  1000022  1    3    3    0    0 -2.2775265488e+02 +9.5003017701e+02 -8.3659891711e+02 2.5916840774e+03 2.2500000000e+03 0.0000e+00 0.0000e+00
      -11  1    4    4    0    0 +8.4852664043e-03 +4.6491286227e-02 +4.4047816169e-02 6.4605806316e-02 5.1100000000e-04 0.0000e+00 -1.0000e+00
  1000022  1    4    4    0    0 +2.2772137489e+02 -9.5001559920e+02 -4.1241076603e+02 2.4873619164e+03 2.2500000000e+03 0.0000e+00 0.0000e+00
<mgrwt>
<rscale>  0 0.49232199E+04</rscale>
<asrwt>0</asrwt>
<pdfrwt beam="1">  1        2 0.48678092E+00 0.49232199E+04</pdfrwt>
<pdfrwt beam="2">  1       -2 0.29463085E+00 0.49232199E+04</pdfrwt>
<totfact> 0.34332167E-02</totfact>
</mgrwt>
</event>
<event>
 8      1 +1.2359593e-08 5.54291600e+03 7.81860800e-03 7.74981100e-02
       -2 -1    0    0    0  501 -0.0000000000e+00 +0.0000000000e+00 +2.3538297178e+03 2.3538297178e+03 2.5500000000e-03 0.0000e+00 -1.0000e+00
        2 -1    0    0  501    0 +0.0000000000e+00 -0.0000000000e+00 -3.2631835012e+03 3.2631835012e+03 2.5500000000e-03 0.0000e+00 1.0000e+00
  1000011  2    1    2    0    0 -1.3465900099e+03 +8.9644249078e+02 -4.2057078505e+02 2.8029839717e+03 2.2500945684e+03 7.2518e+02 0.0000e+00
 -1000011  2    1    2    0    0 +1.3465900099e+03 -8.9644249078e+02 -4.8878299832e+02 2.8140292473e+03 2.2500973292e+03 1.1212e+03 0.0000e+00
       11  1    3    3    0    0 -1.9514873194e-02 +2.6620781936e-02 -1.0436501082e-01 1.0946146580e-01 5.1100000000e-04 0.0000e+00 1.0000e+00
  1000022  1    3    3    0    0 -1.3465704950e+03 +8.9641586999e+02 -4.2046642004e+02 2.8028745103e+03 2.2500000000e+03 0.0000e+00 0.0000e+00
      -11  1    4    4    0    0 -2.2754351726e-03 +5.7696861995e-02 -2.3950668811e-02 6.2514002513e-02 5.1100000000e-04 0.0000e+00 -1.0000e+00
  1000022  1    4    4    0    0 +1.3465922853e+03 -8.9650018764e+02 -4.8875904765e+02 2.8139667333e+03 2.2500000000e+03 0.0000e+00 0.0000e+00
<mgrwt>
<rscale>  0 0.55429156E+04</rscale>
<asrwt>0</asrwt>
<pdfrwt beam="1">  1        2 0.50202823E+00 0.55429156E+04</pdfrwt>
<pdfrwt beam="2">  1       -2 0.36212765E+00 0.55429156E+04</pdfrwt>
<totfact> 0.10703615E-02</totfact>
</mgrwt>
</event>
<event>
 8      1 +1.2359593e-08 5.42929700e+03 7.81860800e-03 7.76549300e-02
        2 -1    0    0  501    0 +0.0000000000e+00 +0.0000000000e+00 +2.9191730286e+03 2.9191730286e+03 2.5500000000e-03 0.0000e+00 1.0000e+00
       -2 -1    0    0    0  501 -0.0000000000e+00 -0.0000000000e+00 -2.5244537415e+03 2.5244537415e+03 2.5500000000e-03 0.0000e+00 -1.0000e+00
  1000011  2    1    2    0    0 -2.6850568828e+01 +6.8848570778e+02 +1.5543117213e+03 2.8202070585e+03 2.2500998651e+03 1.3846e+03 0.0000e+00
 -1000011  2    1    2    0    0 +2.6850568828e+01 -6.8848570778e+02 -1.1595924342e+03 2.6234197116e+03 2.2500984083e+03 9.7809e+02 0.0000e+00
       11  1    3    3    0    0 -1.5048484751e-02 -7.0808495846e-02 +7.2728370432e-02 1.0261567392e-01 5.1100000000e-04 0.0000e+00 1.0000e+00
  1000022  1    3    3    0    0 -2.6835520344e+01 +6.8855651628e+02 +1.5542389930e+03 2.8201044428e+03 2.2500000000e+03 0.0000e+00 0.0000e+00
      -11  1    4    4    0    0 +4.4832285588e-02 -9.8290293519e-02 -1.2718366251e-01 1.6687378551e-01 5.1100000000e-04 0.0000e+00 -1.0000e+00
  1000022  1    4    4    0    0 +2.6805736543e+01 -6.8838741749e+02 -1.1594652506e+03 2.6232528379e+03 2.2500000000e+03 0.0000e+00 0.0000e+00
<mgrwt>
<rscale>  0 0.54292973E+04</rscale>
<asrwt>0</asrwt>
<pdfrwt beam="1">  1        2 0.44910354E+00 0.54292973E+04</pdfrwt>
<pdfrwt beam="2">  1       -2 0.38837750E+00 0.54292973E+04</pdfrwt>
<totfact> 0.12162316E-02</totfact>
</mgrwt>
</event>
<event>
 8      1 +1.2359593e-08 4.76034600e+03 7.81860800e-03 7.86657800e-02
        2 -1    0    0  501    0 +0.0000000000e+00 +0.0000000000e+00 +3.2564830795e+03 3.2564830795e+03 2.5500000000e-03 0.0000e+00 1.0000e+00
       -2 -1    0    0    0  501 -0.0000000000e+00 -0.0000000000e+00 -1.7396756579e+03 1.7396756579e+03 2.5500000000e-03 0.0000e+00 -1.0000e+00
  1000011  2    1    2    0    0 -6.1666998390e+02 +2.4811908156e+02 +1.1788514496e+03 2.6257143847e+03 2.2500756303e+03 4.4649e+02 0.0000e+00
 -1000011  2    1    2    0    0 +6.1666998390e+02 -2.4811908156e+02 +3.3795597192e+02 2.3704443527e+03 2.2500993850e+03 1.2020e+03 0.0000e+00
       11  1    3    3    0    0 +2.4107049759e-02 +3.2794866727e-02 +9.8268977844e-02 1.0636590568e-01 5.1100000000e-04 0.0000e+00 1.0000e+00
  1000022  1    3    3    0    0 -6.1669409095e+02 +2.4808628670e+02 +1.1787531806e+03 2.6256080188e+03 2.2500000000e+03 0.0000e+00 0.0000e+00
      -11  1    4    4    0    0 -6.8911163192e-02 -2.3183978299e-02 +4.4330798215e-02 8.5157065668e-02 5.1100000000e-04 0.0000e+00 -1.0000e+00
  1000022  1    4    4    0    0 +6.1673889506e+02 -2.4809589759e+02 +3.3791164112e+02 2.3703591956e+03 2.2500000000e+03 0.0000e+00 0.0000e+00
<mgrwt>
<rscale>  0 0.47603464E+04</rscale>
<asrwt>0</asrwt>
<pdfrwt beam="1">  1        2 0.50099740E+00 0.47603464E+04</pdfrwt>
<pdfrwt beam="2">  1       -2 0.26764241E+00 0.47603464E+04</pdfrwt>
<totfact> 0.44208534E-02</totfact>
</mgrwt>
</event>
<event>
 8      1 +1.2359593e-08 4.68576900e+03 7.81860800e-03 7.87889700e-02
       -2 -1    0    0    0  501 -0.0000000000e+00 +0.0000000000e+00 +2.0612683441e+03 2.0612683441e+03 2.5500000000e-03 0.0000e+00 -1.0000e+00
        2 -1    0    0  501    0 +0.0000000000e+00 -0.0000000000e+00 -2.6629760622e+03 2.6629760622e+03 2.5500000000e-03 0.0000e+00 1.0000e+00
  1000011  2    1    2    0    0 -5.5031975234e+02 +1.1547803661e+02 +3.3478219142e+01 2.3195409110e+03 2.2501027176e+03 3.0944e+02 0.0000e+00
 -1000011  2    1    2    0    0 +5.5031975234e+02 -1.1547803661e+02 -6.3518593727e+02 2.4047034953e+03 2.2501001575e+03 6.9965e+02 0.0000e+00
       11  1    3    3    0    0 +3.1371778660e-02 +8.6484862562e-02 -2.7776321852e-02 9.6102054836e-02 5.1100000000e-04 0.0000e+00 1.0000e+00
  1000022  1    3    3    0    0 -5.5035112412e+02 +1.1539155175e+02 +3.3505995464e+01 2.3194448090e+03 2.2500000000e+03 0.0000e+00 0.0000e+00
      -11  1    4    4    0    0 +7.6938234080e-02 -4.8142964331e-02 +4.5625958605e-02 1.0158358983e-01 5.1100000000e-04 0.0000e+00 -1.0000e+00
  1000022  1    4    4    0    0 +5.5024281411e+02 -1.1542989365e+02 -6.3523156323e+02 2.4046019117e+03 2.2500000000e+03 0.0000e+00 0.0000e+00
<mgrwt>
<rscale>  0 0.46857692E+04</rscale>
<asrwt>0</asrwt>
<pdfrwt beam="1">  1        2 0.40968863E+00 0.46857692E+04</pdfrwt>
<pdfrwt beam="2">  1       -2 0.31711820E+00 0.46857692E+04</pdfrwt>
<totfact> 0.52012971E-02</totfact>
</mgrwt>
</event>
<event>
 8      1 +1.2359593e-08 4.81987600e+03 7.81860800e-03 7.85691000e-02
       -1 -1    0    0    0  501 -0.0000000000e+00 +0.0000000000e+00 +2.2557898109e+03 2.2557898109e+03 5.0400000000e-03 0.0000e+00 1.0000e+00
        1 -1    0    0  501    0 +0.0000000000e+00 -0.0000000000e+00 -2.5746196844e+03 2.5746196844e+03 5.0400000000e-03 0.0000e+00 -1.0000e+00
  1000011  2    1    2    0    0 -2.2038578820e+01 -7.5357638841e+02 +2.6160599632e+02 2.3874140813e+03 2.2500989370e+03 1.8530e+03 0.0000e+00
 -1000011  2    1    2    0    0 +2.2038578820e+01 +7.5357638841e+02 -5.8043586980e+02 2.4429954140e+03 2.2501017137e+03 1.1338e+03 0.0000e+00
       11  1    3    3    0    0 -5.6612049729e-02 -1.1937219262e-01 +8.7805992108e-03 1.3240847607e-01 5.1100000000e-04 0.0000e+00 1.0000e+00
  1000022  1    3    3    0    0 -2.1981966770e+01 -7.5345701621e+02 +2.6159721572e+02 2.3872816728e+03 2.2500000000e+03 0.0000e+00 0.0000e+00
      -11  1    4    4    0    0 +9.0798296215e-02 -8.1544884969e-03 -4.9533972960e-02 1.0375307920e-01 5.1100000000e-04 0.0000e+00 -1.0000e+00
  1000022  1    4    4    0    0 +2.1947780524e+01 +7.5358454289e+02 -5.8038633583e+02 2.4428916610e+03 2.2500000000e+03 0.0000e+00 0.0000e+00
<mgrwt>
<rscale>  0 0.48198759E+04</rscale>
<asrwt>0</asrwt>
<pdfrwt beam="1">  1        1 0.39609533E+00 0.48198759E+04</pdfrwt>
<pdfrwt beam="2">  1       -1 0.34704459E+00 0.48198759E+04</pdfrwt>
<totfact> 0.14309005E-02</totfact>
</mgrwt>
</event>
<event>
 8      1 +1.2359593e-08 4.81638600e+03 7.81860800e-03 7.85747300e-02
       -1 -1    0    0    0  501 -0.0000000000e+00 +0.0000000000e+00 +2.1414043381e+03 2.1414043381e+03 5.0400000000e-03 0.0000e+00 -1.0000e+00
        1 -1    0    0  501    0 +0.0000000000e+00 -0.0000000000e+00 -2.7082200306e+03 2.7082200306e+03 5.0400000000e-03 0.0000e+00 1.0000e+00
  1000011  2    1    2    0    0 +6.6984272018e+02 +5.3053407506e+02 -3.6316504647e+02 2.4341374800e+03 2.2501068299e+03 1.8872e+03 0.0000e+00
 -1000011  2    1    2    0    0 -6.6984272018e+02 -5.3053407506e+02 -2.0365064599e+02 2.4154868887e+03 2.2500994754e+03 5.5024e+02 0.0000e+00
       11  1    3    3    0    0 -1.7847159170e-02 +1.1307232647e-01 +1.7732527188e-02 1.1583857360e-01 5.1100000000e-04 0.0000e+00 1.0000e+00
  1000022  1    3    3    0    0 +6.6986056734e+02 +5.3042100273e+02 -3.6318277900e+02 2.4340216414e+03 2.2500000000e+03 0.0000e+00 0.0000e+00
      -11  1    4    4    0    0 +4.2223702670e-02 -8.6742383917e-02 +1.9270939834e-02 9.8380445980e-02 5.1100000000e-04 0.0000e+00 -1.0000e+00
  1000022  1    4    4    0    0 -6.6988494388e+02 -5.3044733267e+02 -2.0366991693e+02 2.4153885083e+03 2.2500000000e+03 0.0000e+00 0.0000e+00
<mgrwt>
<rscale>  0 0.48163862E+04</rscale>
<asrwt>0</asrwt>
<pdfrwt beam="1">  1        1 0.41664923E+00 0.48163862E+04</pdfrwt>
<pdfrwt beam="2">  1       -1 0.32944682E+00 0.48163862E+04</pdfrwt>
<totfact> 0.15058884E-02</totfact>
</mgrwt>
</event>
<event>
 8      1 +1.2359593e-08 4.99134800e+03 7.81860800e-03 7.82984300e-02
       -2 -1    0    0    0  501 -0.0000000000e+00 +0.0000000000e+00 +3.1950514794e+03 3.1950514794e+03 2.5500000000e-03 0.0000e+00 -1.0000e+00
        2 -1    0    0  501    0 +0.0000000000e+00 -0.0000000000e+00 -1.9493856699e+03 1.9493856699e+03 2.5500000000e-03 0.0000e+00 1.0000e+00
  1000011  2    1    2    0    0 -2.4411524232e+02 -5.6252165412e+02 -2.9288905059e+02 2.3504959826e+03 2.2501165537e+03 2.4652e+02 0.0000e+00
 -1000011  2    1    2    0    0 +2.4411524232e+02 +5.6252165412e+02 +1.5385548600e+03 2.7939411667e+03 2.2500962919e+03 1.2163e+03 0.0000e+00
       11  1    3    3    0    0 +7.4549633149e-03 +3.4191393782e-02 -1.1107356992e-01 1.1645697279e-01 5.1100000000e-04 0.0000e+00 1.0000e+00
  1000022  1    3    3    0    0 -2.4412269729e+02 -5.6255584551e+02 -2.9277797702e+02 2.3503795256e+03 2.2500000000e+03 0.0000e+00 0.0000e+00
      -11  1    4    4    0    0 +6.5623102076e-02 +6.6900823601e-02 +1.5817755924e-01 1.8385459625e-01 5.1100000000e-04 0.0000e+00 -1.0000e+00
  1000022  1    4    4    0    0 +2.4404961922e+02 +5.6245475329e+02 +1.5383966825e+03 2.7937573121e+03 2.2500000000e+03 0.0000e+00 0.0000e+00
<mgrwt>
<rscale>  0 0.49913475E+04</rscale>
<asrwt>0</asrwt>
<pdfrwt beam="1">  1        2 0.29990549E+00 0.49913475E+04</pdfrwt>
<pdfrwt beam="2">  1       -2 0.49154638E+00 0.49913475E+04</pdfrwt>
<totfact> 0.97353211E-03</totfact>
</mgrwt>
</event>
<event>
 8      1 +1.2359593e-08 5.15722000e+03 7.81860800e-03 7.80470200e-02
        2 -1    0    0  501    0 +0.0000000000e+00 +0.0000000000e+00 +2.0107955088e+03 2.0107955088e+03 2.5500000000e-03 0.0000e+00 1.0000e+00
       -2 -1    0    0    0  501 -0.0000000000e+00 -0.0000000000e+00 -3.3067656544e+03 3.3067656544e+03 2.5500000000e-03 0.0000e+00 -1.0000e+00
  1000011  2    1    2    0    0 +7.9910377236e+02 -7.1487720295e+02 -1.3292991255e+03 2.8248357894e+03 2.2501210674e+03 3.7955e+02 0.0000e+00
 -1000011  2    1    2    0    0 -7.9910377236e+02 +7.1487720295e+02 +3.3328979804e+01 2.4927253738e+03 2.2501006008e+03 2.0473e+02 0.0000e+00
       11  1    3    3    0    0 -6.4765713448e-02 +3.9849958567e-02 -5.5502527370e-02 9.4145674502e-02 5.1100000000e-04 0.0000e+00 1.0000e+00
  1000022  1    3    3    0    0 +7.9916853807e+02 -7.1491705291e+02 -1.3292436229e+03 2.8247416437e+03 2.2500000000e+03 0.0000e+00 0.0000e+00
      -11  1    4    4    0    0 +7.2474263899e-03 +2.1473064384e-02 -9.0638157671e-02 9.3429943295e-02 5.1100000000e-04 0.0000e+00 -1.0000e+00
  1000022  1    4    4    0    0 -7.9911101978e+02 +7.1485572989e+02 +3.3419617962e+01 2.4926319438e+03 2.2500000000e+03 0.0000e+00 0.0000e+00
<mgrwt>
<rscale>  0 0.51572200E+04</rscale>
<asrwt>0</asrwt>
<pdfrwt beam="1">  1        2 0.30935316E+00 0.51572200E+04</pdfrwt>
<pdfrwt beam="2">  1       -2 0.50873318E+00 0.51572200E+04</pdfrwt>
<totfact> 0.69669593E-03</totfact>
</mgrwt>
</event>
<event>
 8      1 +1.2359593e-08 4.92472300e+03 7.81860800e-03 7.84022500e-02
        2 -1    0    0  501    0 +0.0000000000e+00 +0.0000000000e+00 +2.9061268339e+03 2.9061268339e+03 2.5500000000e-03 0.0000e+00 1.0000e+00
       -2 -1    0    0    0  501 -0.0000000000e+00 -0.0000000000e+00 -2.0863590330e+03 2.0863590330e+03 2.5500000000e-03 0.0000e+00 -1.0000e+00
  1000011  2    1    2    0    0 -8.2583574176e+02 -5.6412504065e+02 +4.0390327572e+02 2.4952614783e+03 2.2501000544e+03 6.4910e+02 0.0000e+00
 -1000011  2    1    2    0    0 +8.2583574176e+02 +5.6412504065e+02 +4.1586452520e+02 2.4972243887e+03 2.2500988001e+03 5.6648e+02 0.0000e+00
       11  1    3    3    0    0 -2.4304196465e-02 -7.9572642246e-02 -6.5194095278e-02 1.0570255646e-01 5.1100000000e-04 0.0000e+00 1.0000e+00
  1000022  1    3    3    0    0 -8.2581143757e+02 -5.6404546800e+02 +4.0396846982e+02 2.4951557757e+03 2.2500000000e+03 0.0000e+00 0.0000e+00
      -11  1    4    4    0    0 +1.1357728060e-01 -2.1751988057e-02 -2.2804452551e-02 1.1786963808e-01 5.1100000000e-04 0.0000e+00 -1.0000e+00
  1000022  1    4    4    0    0 +8.2572216448e+02 +5.6414679263e+02 +4.1588732965e+02 2.4971065191e+03 2.2500000000e+03 0.0000e+00 0.0000e+00
<mgrwt>
<rscale>  0 0.49247229E+04</rscale>
<asrwt>0</asrwt>
<pdfrwt beam="1">  1        2 0.44709644E+00 0.49247229E+04</pdfrwt>
<pdfrwt beam="2">  1       -2 0.32097831E+00 0.49247229E+04</pdfrwt>
<totfact> 0.34432318E-02</totfact>
</mgrwt>
</event>
<event>
 8      1 +1.2359593e-08 5.78418900e+03 7.81860800e-03 7.71775100e-02
        2 -1    0    0  501    0 +0.0000000000e+00 +0.0000000000e+00 +2.9529119707e+03 2.9529119707e+03 2.5500000000e-03 0.0000e+00 1.0000e+00
       -2 -1    0    0    0  501 -0.0000000000e+00 -0.0000000000e+00 -2.8325297071e+03 2.8325297071e+03 2.5500000000e-03 0.0000e+00 -1.0000e+00
  1000011  2    1    2    0    0 -9.4678862921e+02 -1.2549777064e+03 -8.5099083816e+02 2.8737588813e+03 2.2500948756e+03 1.1964e+03 0.0000e+00
 -1000011  2    1    2    0    0 +9.4678862921e+02 +1.2549777064e+03 +9.7137310177e+02 2.9116827965e+03 2.2501007206e+03 2.8820e+02 0.0000e+00
       11  1    3    3    0    0 -9.1894293872e-02 -1.1933829483e-01 +1.7157267488e-02 1.5159426966e-01 5.1100000000e-04 0.0000e+00 1.0000e+00
  1000022  1    3    3    0    0 -9.4669673492e+02 -1.2548583681e+03 -8.5100799543e+02 2.8736072870e+03 2.2500000000e+03 0.0000e+00 0.0000e+00
      -11  1    4    4    0    0 -1.6242833098e-02 -5.0622912251e-02 +1.0210444200e-02 5.4138923085e-02 5.1100000000e-04 0.0000e+00 -1.0000e+00
  1000022  1    4    4    0    0 +9.4680487205e+02 +1.2550283293e+03 +9.7136289132e+02 2.9116286576e+03 2.2500000000e+03 0.0000e+00 0.0000e+00
<mgrwt>
<rscale>  0 0.57841891E+04</rscale>
<asrwt>0</asrwt>
<pdfrwt beam="1">  1        2 0.45429415E+00 0.57841891E+04</pdfrwt>
<pdfrwt beam="2">  1       -2 0.43577380E+00 0.57841891E+04</pdfrwt>
<totfact> 0.55134799E-03</totfact>
</mgrwt>
</event>
<event>
 8      1 +1.2359593e-08 5.74483600e+03 7.81860800e-03 7.72287000e-02
        3 -1    0    0  501    0 +0.0000000000e+00 +0.0000000000e+00 +5.2120342382e+03 5.2120342392e+03 1.0100000000e-01 0.0000e+00 1.0000e+00
       -3 -1    0    0    0  501 -0.0000000000e+00 -0.0000000000e+00 -1.5830257062e+03 1.5830257094e+03 1.0100000000e-01 0.0000e+00 -1.0000e+00
  1000011  2    1    2    0    0 -4.6201016829e+02 +1.4838719070e+03 +7.7491363228e+02 2.8423231251e+03 2.2501067481e+03 1.8520e+03 0.0000e+00
 -1000011  2    1    2    0    0 +4.6201016829e+02 -1.4838719070e+03 +2.8540948997e+03 3.9527368235e+03 2.2500981017e+03 2.2679e+01 0.0000e+00
       11  1    3    3    0    0 +7.1426034285e-02 +1.2374495475e-01 +4.3572297268e-02 1.4937636474e-01 5.1100000000e-04 0.0000e+00 1.0000e+00
  1000022  1    3    3    0    0 -4.6208159433e+02 +1.4837481620e+03 +7.7487005998e+02 2.8421737487e+03 2.2500000000e+03 0.0000e+00 0.0000e+00
      -11  1    4    4    0    0 -3.9975862228e-03 +2.3255075377e-02 +1.6165853415e-01 1.6337234011e-01 5.1100000000e-04 0.0000e+00 -1.0000e+00
  1000022  1    4    4    0    0 +4.6201416588e+02 -1.4838951621e+03 +2.8539332412e+03 3.9525734511e+03 2.2500000000e+03 0.0000e+00 0.0000e+00
<mgrwt>
<rscale>  0 0.57448357E+04</rscale>
<asrwt>0</asrwt>
<pdfrwt beam="1">  1        3 0.80185141E+00 0.57448357E+04</pdfrwt>
<pdfrwt beam="2">  1       -3 0.24354242E+00 0.57448357E+04</pdfrwt>
<totfact> 0.84961889E-06</totfact>
</mgrwt>
</event>
<event>
 8      1 +1.2359593e-08 5.69249900e+03 7.81860800e-03 7.72974300e-02
        2 -1    0    0  501    0 +0.0000000000e+00 +0.0000000000e+00 +3.6116543217e+03 3.6116543217e+03 2.5500000000e-03 0.0000e+00 1.0000e+00
       -2 -1    0    0    0  501 -0.0000000000e+00 -0.0000000000e+00 -2.2430540160e+03 2.2430540160e+03 2.5500000000e-03 0.0000e+00 -1.0000e+00
  1000011  2    1    2    0    0 +5.1984693842e+02 +1.6555777068e+03 +5.1525984045e+02 2.8878405993e+03 2.2501004958e+03 1.1499e+03 0.0000e+00
 -1000011  2    1    2    0    0 -5.1984693842e+02 -1.6555777068e+03 +8.5334046522e+02 2.9668677384e+03 2.2500968523e+03 6.3478e+02 0.0000e+00
       11  1    3    3    0    0 +7.7370933619e-02 +1.8777964641e-01 +3.2459103524e-02 2.0567282493e-01 5.1100000000e-04 0.0000e+00 1.0000e+00
  1000022  1    3    3    0    0 +5.1976956749e+02 +1.6553899271e+03 +5.1522738135e+02 2.8876349265e+03 2.2500000000e+03 0.0000e+00 0.0000e+00
      -11  1    4    4    0    0 -1.0099198329e-01 -1.6265418800e-02 +8.3948237012e-03 1.0263858112e-01 5.1100000000e-04 0.0000e+00 -1.0000e+00
  1000022  1    4    4    0    0 -5.1974594644e+02 -1.6555614413e+03 +8.5333207039e+02 2.9667650998e+03 2.2500000000e+03 0.0000e+00 0.0000e+00
<mgrwt>
<rscale>  0 0.56924988E+04</rscale>
<asrwt>0</asrwt>
<pdfrwt beam="1">  1        2 0.55563912E+00 0.56924988E+04</pdfrwt>
<pdfrwt beam="2">  1       -2 0.34508524E+00 0.56924988E+04</pdfrwt>
<totfact> 0.77783570E-03</totfact>
</mgrwt>
</event>
<event>
 8      1 +1.2359593e-08 4.66947400e+03 7.81860800e-03 7.88162100e-02
        2 -1    0    0  501    0 +0.0000000000e+00 +0.0000000000e+00 +2.8738151986e+03 2.8738151986e+03 2.5500000000e-03 0.0000e+00 1.0000e+00
       -2 -1    0    0    0  501 -0.0000000000e+00 -0.0000000000e+00 -1.8967804101e+03 1.8967804101e+03 2.5500000000e-03 0.0000e+00 -1.0000e+00
  1000011  2    1    2    0    0 +4.0955735593e+02 +1.9864959545e+02 +5.4037070913e+01 2.2963131075e+03 2.2500966631e+03 8.7223e+02 0.0000e+00
 -1000011  2    1    2    0    0 -4.0955735593e+02 -1.9864959545e+02 +9.2299771764e+02 2.4742825012e+03 2.2501000465e+03 6.8300e+02 0.0000e+00
       11  1    3    3    0    0 -5.2330194981e-02 +6.1534958959e-02 -3.9189107101e-02 8.9783335952e-02 5.1100000000e-04 0.0000e+00 1.0000e+00
  1000022  1    3    3    0    0 +4.0960968612e+02 +1.9858806049e+02 +5.4076260020e+01 2.2962233242e+03 2.2500000000e+03 0.0000e+00 0.0000e+00
      -11  1    4    4    0    0 -4.4501897080e-02 -1.0513163742e-01 +6.2018869264e-02 1.2992182545e-01 5.1100000000e-04 0.0000e+00 -1.0000e+00
  1000022  1    4    4    0    0 -4.0951285403e+02 -1.9854446381e+02 +9.2293569877e+02 2.4741525793e+03 2.2500000000e+03 0.0000e+00 0.0000e+00
<mgrwt>
<rscale>  0 0.46694738E+04</rscale>
<asrwt>0</asrwt>
<pdfrwt beam="1">  1        2 0.44212542E+00 0.46694738E+04</pdfrwt>
<pdfrwt beam="2">  1       -2 0.29181237E+00 0.46694738E+04</pdfrwt>
<totfact> 0.55564829E-02</totfact>
</mgrwt>
</event>
<event>
 8      1 +1.2359593e-08 5.17341900e+03 7.81860800e-03 7.80229900e-02
       -2 -1    0    0    0  501 -0.0000000000e+00 +0.0000000000e+00 +2.7838123116e+03 2.7838123116e+03 2.5500000000e-03 0.0000e+00 -1.0000e+00
        2 -1    0    0  501    0 +0.0000000000e+00 -0.0000000000e+00 -2.4035619084e+03 2.4035619084e+03 2.5500000000e-03 0.0000e+00 1.0000e+00
  1000011  2    1    2    0    0 -9.9666061033e+01 -9.0086429448e+02 +1.0906733796e+03 2.6597004846e+03 2.2500996524e+03 4.5410e+02 0.0000e+00
 -1000011  2    1    2    0    0 +9.9666061033e+01 +9.0086429448e+02 -7.1042297645e+02 2.5276737355e+03 2.2500986438e+03 8.9666e+02 0.0000e+00
       11  1    3    3    0    0 -1.0481293673e-02 +6.3568044715e-02 +3.2835404367e-03 6.4511986371e-02 5.1100000000e-04 0.0000e+00 1.0000e+00
  1000022  1    3    3    0    0 -9.9655579739e+01 -9.0092786253e+02 +1.0906700961e+03 2.6596359726e+03 2.2500000000e+03 0.0000e+00 0.0000e+00
      -11  1    4    4    0    0 -4.0383462250e-02 -4.7042245485e-02 +1.7698038672e-02 6.4476960279e-02 5.1100000000e-04 0.0000e+00 -1.0000e+00
  1000022  1    4    4    0    0 +9.9706444495e+01 +9.0091133673e+02 -7.1044067449e+02 2.5276092585e+03 2.2500000000e+03 0.0000e+00 0.0000e+00
<mgrwt>
<rscale>  0 0.51734187E+04</rscale>
<asrwt>0</asrwt>
<pdfrwt beam="1">  1        2 0.36977875E+00 0.51734187E+04</pdfrwt>
<pdfrwt beam="2">  1       -2 0.42827882E+00 0.51734187E+04</pdfrwt>
<totfact> 0.13760677E-02</totfact>
</mgrwt>
</event>
<event>
 8      1 +1.2359593e-08 4.71564100e+03 7.81860800e-03 7.87393500e-02
       -2 -1    0    0    0  501 -0.0000000000e+00 +0.0000000000e+00 +2.5505117924e+03 2.5505117924e+03 2.5500000000e-03 0.0000e+00 -1.0000e+00
        2 -1    0    0  501    0 +0.0000000000e+00 -0.0000000000e+00 -2.1796865901e+03 2.1796865901e+03 2.5500000000e-03 0.0000e+00 1.0000e+00
  1000011  2    1    2    0    0 +3.8143437614e+02 +4.5387066524e+02 -1.9638338346e+02 2.3351703364e+03 2.2501029538e+03 5.6542e+02 0.0000e+00
 -1000011  2    1    2    0    0 -3.8143437614e+02 -4.5387066524e+02 +5.6720858576e+02 2.3950280460e+03 2.2500984417e+03 6.5536e+02 0.0000e+00
       11  1    3    3    0    0 +1.0213783942e-01 +7.3653638236e-02 -4.6016506584e-02 1.3407004289e-01 5.1100000000e-04 0.0000e+00 1.0000e+00
  1000022  1    3    3    0    0 +3.8133223831e+02 +4.5379701160e+02 -1.9633736695e+02 2.3350362664e+03 2.2500000000e+03 0.0000e+00 0.0000e+00
      -11  1    4    4    0    0 +4.5601033476e-02 +6.0600978395e-02 +2.1388984661e-02 7.8801536471e-02 5.1100000000e-04 0.0000e+00 -1.0000e+00
  1000022  1    4    4    0    0 -3.8147997718e+02 -4.5393126622e+02 +5.6718719677e+02 2.3949492445e+03 2.2500000000e+03 0.0000e+00 0.0000e+00
<mgrwt>
<rscale>  0 0.47156405E+04</rscale>
<asrwt>0</asrwt>
<pdfrwt beam="1">  1        2 0.33533640E+00 0.47156405E+04</pdfrwt>
<pdfrwt beam="2">  1       -2 0.39238643E+00 0.47156405E+04</pdfrwt>
<totfact> 0.32862957E-02</totfact>
</mgrwt>
</event>
<event>
 8      1 +1.2359593e-08 5.15720800e+03 7.81860800e-03 7.80470400e-02
       -2 -1    0    0    0  501 -0.0000000000e+00 +0.0000000000e+00 +2.2391483987e+03 2.2391483988e+03 2.5500000000e-03 0.0000e+00 -1.0000e+00
        2 -1    0    0  501    0 +0.0000000000e+00 -0.0000000000e+00 -2.9695214589e+03 2.9695214589e+03 2.5500000000e-03 0.0000e+00 1.0000e+00
  1000011  2    1    2    0    0 +1.9002880568e+02 -1.2077807510e+03 -5.9834545041e+01 2.5615185752e+03 2.2501004309e+03 1.8976e+03 0.0000e+00
 -1000011  2    1    2    0    0 -1.9002880568e+02 +1.2077807510e+03 -6.7053851514e+02 2.6471512825e+03 2.2500983806e+03 1.1401e+02 0.0000e+00
       11  1    3    3    0    0 +6.4721688004e-02 +2.3780984857e-02 -4.5985531701e-02 8.2881614524e-02 5.1100000000e-04 0.0000e+00 1.0000e+00
  1000022  1    3    3    0    0 +1.8996408399e+02 -1.2078045320e+03 -5.9788559510e+01 2.5614356936e+03 2.2500000000e+03 0.0000e+00 0.0000e+00
      -11  1    4    4    0    0 +4.4252119608e-02 -2.9262136711e-02 +2.8017051655e-02 5.9997821063e-02 5.1100000000e-04 0.0000e+00 -1.0000e+00
  1000022  1    4    4    0    0 -1.9007305780e+02 +1.2078100131e+03 -6.7056653219e+02 2.6470912846e+03 2.2500000000e+03 0.0000e+00 0.0000e+00
<mgrwt>
<rscale>  0 0.51572082E+04</rscale>
<asrwt>0</asrwt>
<pdfrwt beam="1">  1        2 0.45684945E+00 0.51572082E+04</pdfrwt>
<pdfrwt beam="2">  1       -2 0.34448437E+00 0.51572082E+04</pdfrwt>
<totfact> 0.22037876E-02</totfact>
</mgrwt>
</event>
<event>
 8      1 +1.2359593e-08 5.76678000e+03 7.81860800e-03 7.72001000e-02
       -2 -1    0    0    0  501 -0.0000000000e+00 +0.0000000000e+00 +2.4255947835e+03 2.4255947835e+03 2.5500000000e-03 0.0000e+00 -1.0000e+00
        2 -1    0    0  501    0 +0.0000000000e+00 -0.0000000000e+00 -3.4275868124e+03 3.4275868124e+03 2.5500000000e-03 0.0000e+00 1.0000e+00
  1000011  2    1    2    0    0 -1.3817849267e+03 -1.0986726215e+03 -8.7330676154e+02 2.9903284540e+03 2.2501085419e+03 4.2746e+02 0.0000e+00
 -1000011  2    1    2    0    0 +1.3817849267e+03 +1.0986726215e+03 -1.2868526742e+02 2.8628531419e+03 2.2501015758e+03 9.5873e+02 0.0000e+00
       11  1    3    3    0    0 +4.8887669191e-03 -2.2468587677e-02 -1.2076609366e-01 1.2293676275e-01 5.1100000000e-04 0.0000e+00 1.0000e+00
  1000022  1    3    3    0    0 -1.3817898154e+03 -1.0986501529e+03 -8.7318599545e+02 2.9902055172e+03 2.2500000000e+03 0.0000e+00 0.0000e+00
      -11  1    4    4    0    0 +2.1071761830e-02 +3.5311139890e-02 +9.0585563941e-02 9.9483169229e-02 5.1100000000e-04 0.0000e+00 -1.0000e+00
  1000022  1    4    4    0    0 +1.3817638549e+03 +1.0986373104e+03 -1.2877585299e+02 2.8627536588e+03 2.2500000000e+03 0.0000e+00 0.0000e+00
<mgrwt>
<rscale>  0 0.57667796E+04</rscale>
<asrwt>0</asrwt>
<pdfrwt beam="1">  1        2 0.52732104E+00 0.57667796E+04</pdfrwt>
<pdfrwt beam="2">  1       -2 0.37316843E+00 0.57667796E+04</pdfrwt>
<totfact> 0.69212799E-03</totfact>
</mgrwt>
</event>
<event>
 8      1 +1.2359593e-08 4.82330300e+03 7.81860800e-03 7.85635800e-02
       -2 -1    0    0    0  501 -0.0000000000e+00 +0.0000000000e+00 +2.2300100095e+03 2.2300100095e+03 2.5500000000e-03 0.0000e+00 -1.0000e+00
        2 -1    0    0  501    0 +0.0000000000e+00 -0.0000000000e+00 -2.6080887090e+03 2.6080887090e+03 2.5500000000e-03 0.0000e+00 1.0000e+00
  1000011  2    1    2    0    0 +1.0955053705e+02 -8.5090287385e+02 -3.2010276006e+02 2.4292911952e+03 2.2501006452e+03 5.7102e+02 0.0000e+00
 -1000011  2    1    2    0    0 -1.0955053705e+02 +8.5090287385e+02 -5.7975939498e+01 2.4088075233e+03 2.2501012097e+03 5.6536e+02 0.0000e+00
       11  1    3    3    0    0 +6.0058433284e-02 -1.2866541644e-02 -9.4752474334e-02 1.1291968602e-01 5.1100000000e-04 0.0000e+00 1.0000e+00
  1000022  1    3    3    0    0 +1.0949047861e+02 -8.5089000731e+02 -3.2000800759e+02 2.4291782755e+03 2.2500000000e+03 0.0000e+00 0.0000e+00
      -11  1    4    4    0    0 -6.2249036846e-02 +2.0202973162e-02 +7.9021692486e-02 1.0260502623e-01 5.1100000000e-04 0.0000e+00 -1.0000e+00
  1000022  1    4    4    0    0 -1.0948828801e+02 +8.5088267088e+02 -5.8054961191e+01 2.4087049183e+03 2.2500000000e+03 0.0000e+00 0.0000e+00
<mgrwt>
<rscale>  0 0.48233034E+04</rscale>
<asrwt>0</asrwt>
<pdfrwt beam="1">  1        2 0.40124442E+00 0.48233034E+04</pdfrwt>
<pdfrwt beam="2">  1       -2 0.34307846E+00 0.48233034E+04</pdfrwt>
<totfact> 0.38222709E-02</totfact>
</mgrwt>
</event>
<event>
 8      1 +1.2359593e-08 6.26391100e+03 7.81860800e-03 7.65851400e-02
        2 -1    0    0  501    0 +0.0000000000e+00 +0.0000000000e+00 +3.6997479902e+03 3.6997479902e+03 2.5500000000e-03 0.0000e+00 1.0000e+00
       -2 -1    0    0    0  501 -0.0000000000e+00 -0.0000000000e+00 -2.6513009432e+03 2.6513009432e+03 2.5500000000e-03 0.0000e+00 -1.0000e+00
  1000011  2    1    2    0    0 +7.1787075545e+01 +6.9935393641e+02 -1.5664838770e+03 2.8303862112e+03 2.2501033433e+03 1.1451e+03 0.0000e+00
 -1000011  2    1    2    0    0 -7.1787075545e+01 -6.9935393641e+02 +2.6149309240e+03 3.5206627222e+03 2.2501006541e+03 7.6746e+02 0.0000e+00
       11  1    3    3    0    0 -8.1423192937e-02 +9.2956511068e-02 -7.4659613290e-02 1.4437786459e-01 5.1100000000e-04 0.0000e+00 1.0000e+00
  1000022  1    3    3    0    0 +7.1868498738e+01 +6.9926097990e+02 -1.5664092174e+03 2.8302418334e+03 2.2500000000e+03 0.0000e+00 0.0000e+00
      -11  1    4    4    0    0 -2.9771992397e-02 +6.9454389901e-02 +1.0123855201e-01 1.2633205898e-01 5.1100000000e-04 0.0000e+00 -1.0000e+00
  1000022  1    4    4    0    0 -7.1757303552e+01 -6.9942339080e+02 +2.6148296855e+03 3.5205363901e+03 2.2500000000e+03 0.0000e+00 0.0000e+00
<mgrwt>
<rscale>  0 0.62639110E+04</rscale>
<asrwt>0</asrwt>
<pdfrwt beam="1">  1        2 0.56919200E+00 0.62639110E+04</pdfrwt>
<pdfrwt beam="2">  1       -2 0.40789245E+00 0.62639110E+04</pdfrwt>
<totfact> 0.25339273E-03</totfact>
</mgrwt>
</event>
<event>
 8      1 +1.2359593e-08 4.98769100e+03 7.81860800e-03 7.83040900e-02
       -2 -1    0    0    0  501 -0.0000000000e+00 +0.0000000000e+00 +2.6133272253e+03 2.6133272253e+03 2.5500000000e-03 0.0000e+00 -1.0000e+00
        2 -1    0    0  501    0 +0.0000000000e+00 -0.0000000000e+00 -2.3798262607e+03 2.3798262607e+03 2.5500000000e-03 0.0000e+00 1.0000e+00
  1000011  2    1    2    0    0 +2.2625002292e+02 -7.5659090855e+02 +8.4741105644e+02 2.5307448820e+03 2.2500989497e+03 5.7170e+02 0.0000e+00
 -1000011  2    1    2    0    0 -2.2625002292e+02 +7.5659090855e+02 -6.1391009180e+02 2.4624086039e+03 2.2501003658e+03 2.1021e+03 0.0000e+00
       11  1    3    3    0    0 +5.3613870897e-02 -1.2797883276e-01 +3.9733967088e-02 1.4433321828e-01 5.1100000000e-04 0.0000e+00 1.0000e+00
  1000022  1    3    3    0    0 +2.2619640905e+02 -7.5646292972e+02 +8.4737132247e+02 2.5306005488e+03 2.2500000000e+03 0.0000e+00 0.0000e+00
      -11  1    4    4    0    0 +7.2824871161e-02 +4.3710909651e-02 -8.3852390616e-02 1.1935488981e-01 5.1100000000e-04 0.0000e+00 -1.0000e+00
  1000022  1    4    4    0    0 -2.2632284779e+02 +7.5654719764e+02 -6.1382623941e+02 2.4622892490e+03 2.2500000000e+03 0.0000e+00 0.0000e+00
<mgrwt>
<rscale>  0 0.49876908E+04</rscale>
<asrwt>0</asrwt>
<pdfrwt beam="1">  1        2 0.36612712E+00 0.49876908E+04</pdfrwt>
<pdfrwt beam="2">  1       -2 0.40205034E+00 0.49876908E+04</pdfrwt>
<totfact> 0.21427100E-02</totfact>
</mgrwt>
</event>
<event>
 8      1 +1.2359593e-08 4.56715100e+03 7.81860800e-03 7.89898500e-02
        2 -1    0    0  501    0 +0.0000000000e+00 +0.0000000000e+00 +3.4718084393e+03 3.4718084393e+03 2.5500000000e-03 0.0000e+00 1.0000e+00
       -2 -1    0    0    0  501 -0.0000000000e+00 -0.0000000000e+00 -1.5020175704e+03 1.5020175704e+03 2.5500000000e-03 0.0000e+00 -1.0000e+00
  1000011  2    1    2    0    0 -1.4848779713e+02 -8.8635635682e+01 +6.0472588910e+02 2.3363548910e+03 2.2501013030e+03 1.2987e+03 0.0000e+00
 -1000011  2    1    2    0    0 +1.4848779713e+02 +8.8635635682e+01 +1.3650649798e+03 2.6374711187e+03 2.2500992425e+03 1.3706e+03 0.0000e+00
       11  1    3    3    0    0 +5.5013268531e-02 +3.9908089756e-02 +9.5595146316e-02 1.1729368264e-01 5.1100000000e-04 0.0000e+00 1.0000e+00
  1000022  1    3    3    0    0 -1.4854281040e+02 -8.8675543772e+01 +6.0463029395e+02 2.3362375973e+03 2.2500000000e+03 0.0000e+00 0.0000e+00
      -11  1    4    4    0    0 -8.9903930093e-02 -2.0154203192e-02 +5.0658669493e-02 1.0514499454e-01 5.1100000000e-04 0.0000e+00 -1.0000e+00
  1000022  1    4    4    0    0 +1.4857770106e+02 +8.8655789885e+01 +1.3650143212e+03 2.6373659737e+03 2.2500000000e+03 0.0000e+00 0.0000e+00
<mgrwt>
<rscale>  0 0.45671511E+04</rscale>
<asrwt>0</asrwt>
<pdfrwt beam="1">  1        2 0.53412436E+00 0.45671511E+04</pdfrwt>
<pdfrwt beam="2">  1       -2 0.23107963E+00 0.45671511E+04</pdfrwt>
<totfact> 0.53866890E-02</totfact>
</mgrwt>
</event>
<event>
 8      1 +1.2359593e-08 5.32438400e+03 7.81860800e-03 7.78032700e-02
       -2 -1    0    0    0  501 -0.0000000000e+00 +0.0000000000e+00 +2.3481465340e+03 2.3481465340e+03 2.5500000000e-03 0.0000e+00 -1.0000e+00
        2 -1    0    0  501    0 +0.0000000000e+00 -0.0000000000e+00 -3.0182385270e+03 3.0182385270e+03 2.5500000000e-03 0.0000e+00 1.0000e+00
  1000011  2    1    2    0    0 -3.7485007643e+02 -7.3594209012e+02 -1.5027167832e+03 2.8289985929e+03 2.2501004352e+03 1.4945e+03 0.0000e+00
 -1000011  2    1    2    0    0 +3.7485007643e+02 +7.3594209012e+02 +8.3262479025e+02 2.5373864681e+03 2.2500983772e+03 6.8253e+02 0.0000e+00
       11  1    3    3    0    0 +4.0048779755e-02 -5.9010788137e-02 -1.5931882000e-01 1.7455350167e-01 5.1100000000e-04 0.0000e+00 1.0000e+00
  1000022  1    3    3    0    0 -3.7489012521e+02 -7.3588307934e+02 -1.5025574643e+03 2.8288240394e+03 2.2500000000e+03 0.0000e+00 0.0000e+00
      -11  1    4    4    0    0 +3.2369497782e-02 -1.0734267346e-02 +1.2555553563e-01 1.3010558002e-01 5.1100000000e-04 0.0000e+00 -1.0000e+00
  1000022  1    4    4    0    0 +3.7481770693e+02 +7.3595282439e+02 +8.3249923471e+02 2.5372563625e+03 2.2500000000e+03 0.0000e+00 0.0000e+00
<mgrwt>
<rscale>  0 0.53243840E+04</rscale>
<asrwt>0</asrwt>
<pdfrwt beam="1">  1        2 0.46434439E+00 0.53243840E+04</pdfrwt>
<pdfrwt beam="2">  1       -2 0.36125331E+00 0.53243840E+04</pdfrwt>
<totfact> 0.15882357E-02</totfact>
</mgrwt>
</event>
<event>
 8      1 +1.2359593e-08 5.12107700e+03 7.81860800e-03 7.81009700e-02
        2 -1    0    0  501    0 +0.0000000000e+00 +0.0000000000e+00 +5.6624168151e+03 5.6624168151e+03 2.5500000000e-03 0.0000e+00 -1.0000e+00
       -2 -1    0    0    0  501 -0.0000000000e+00 -0.0000000000e+00 -1.1578724688e+03 1.1578724688e+03 2.5500000000e-03 0.0000e+00 1.0000e+00
  1000011  2    1    2    0    0 -8.7538676620e+02 +6.5414042817e+02 +1.5237765395e+03 2.9290004034e+03 2.2500992713e+03 1.0149e+03 0.0000e+00
 -1000011  2    1    2    0    0 +8.7538676620e+02 -6.5414042817e+02 +2.9807678068e+03 3.8912888804e+03 2.2501001627e+03 2.0067e+01 0.0000e+00
       11  1    3    3    0    0 -1.1232126372e-01 -2.0371353491e-02 +2.0605944257e-02 1.1599967185e-01 5.1100000000e-04 0.0000e+00 1.0000e+00
  1000022  1    3    3    0    0 -8.7527444493e+02 +6.5416079952e+02 +1.5237559335e+03 2.9288844037e+03 2.2500000000e+03 0.0000e+00 0.0000e+00
      -11  1    4    4    0    0 +1.0412039266e-01 -2.8368339626e-02 +2.8306878866e-01 3.0294226995e-01 5.1100000000e-04 0.0000e+00 -1.0000e+00
  1000022  1    4    4    0    0 +8.7528264580e+02 -6.5411205983e+02 +2.9804847381e+03 3.8909859381e+03 2.2500000000e+03 0.0000e+00 0.0000e+00
<mgrwt>
<rscale>  0 0.51210767E+04</rscale>
<asrwt>0</asrwt>
<pdfrwt beam="1">  1        2 0.87114103E+00 0.51210767E+04</pdfrwt>
<pdfrwt beam="2">  1       -2 0.17813423E+00 0.51210767E+04</pdfrwt>
<totfact> 0.36802507E-04</totfact>
</mgrwt>
</event>
<event>
 8      1 +1.2359593e-08 6.23733500e+03 7.81860800e-03 7.66165200e-02
       -2 -1    0    0    0  501 -0.0000000000e+00 +0.0000000000e+00 +2.1734233067e+03 2.1734233067e+03 2.5500000000e-03 0.0000e+00 -1.0000e+00
        2 -1    0    0  501    0 +0.0000000000e+00 -0.0000000000e+00 -4.4750087709e+03 4.4750087709e+03 2.5500000000e-03 0.0000e+00 1.0000e+00
  1000011  2    1    2    0    0 -1.6668450507e+02 +1.3078835712e+03 +6.7213059048e+02 2.6931467381e+03 2.2500970339e+03 2.0879e+02 0.0000e+00
 -1000011  2    1    2    0    0 +1.6668450507e+02 -1.3078835712e+03 -2.9737160547e+03 3.9552853396e+03 2.2501003942e+03 1.8277e+02 0.0000e+00
       11  1    3    3    0    0 -5.7784073998e-02 +6.8410517279e-02 -5.3763878780e-02 1.0445005286e-01 5.1100000000e-04 0.0000e+00 1.0000e+00
  1000022  1    3    3    0    0 -1.6662672099e+02 +1.3078151607e+03 +6.7218435436e+02 2.6930422880e+03 2.2500000000e+03 0.0000e+00 0.0000e+00
      -11  1    4    4    0    0 +5.5957539613e-02 +3.8963906382e-02 -5.2507226185e-02 8.6062198032e-02 5.1100000000e-04 0.0000e+00 -1.0000e+00
  1000022  1    4    4    0    0 +1.6662854753e+02 -1.3079225351e+03 -2.9736635474e+03 3.9551992774e+03 2.2500000000e+03 0.0000e+00 0.0000e+00
<mgrwt>
<rscale>  0 0.62373354E+04</rscale>
<asrwt>0</asrwt>
<pdfrwt beam="1">  1        2 0.68846288E+00 0.62373354E+04</pdfrwt>
<pdfrwt beam="2">  1       -2 0.33437282E+00 0.62373354E+04</pdfrwt>
<totfact> 0.16578865E-03</totfact>
</mgrwt>
</event>
<event>
 8      1 +1.2359593e-08 4.64650800e+03 7.81860800e-03 7.88547800e-02
        2 -1    0    0  501    0 +0.0000000000e+00 +0.0000000000e+00 +2.6089159083e+03 2.6089159083e+03 2.5500000000e-03 0.0000e+00 1.0000e+00
       -2 -1    0    0    0  501 -0.0000000000e+00 -0.0000000000e+00 -2.0688702871e+03 2.0688702871e+03 2.5500000000e-03 0.0000e+00 -1.0000e+00
  1000011  2    1    2    0    0 -3.4334987230e+02 +4.1301654438e+02 +5.3898607863e+01 2.3139424387e+03 2.2501006087e+03 1.1902e+03 0.0000e+00
 -1000011  2    1    2    0    0 +3.4334987230e+02 -4.1301654438e+02 +4.8614701332e+02 2.3638437567e+03 2.2500992393e+03 5.1705e+02 0.0000e+00
       11  1    3    3    0    0 -1.0536818863e-01 +3.2487418918e-02 +4.8327866935e-02 1.2038991359e-01 5.1100000000e-04 0.0000e+00 1.0000e+00
  1000022  1    3    3    0    0 -3.4324450412e+02 +4.1298405697e+02 +5.3850279996e+01 2.3138220488e+03 2.2500000000e+03 0.0000e+00 0.0000e+00
      -11  1    4    4    0    0 -6.6923850436e-02 -4.9658894050e-02 -2.7509521503e-02 8.7760138101e-02 5.1100000000e-04 0.0000e+00 -1.0000e+00
  1000022  1    4    4    0    0 +3.4341679615e+02 -4.1296688549e+02 +4.8617452285e+02 2.3637559965e+03 2.2500000000e+03 0.0000e+00 0.0000e+00
<mgrwt>
<rscale>  0 0.46465078E+04</rscale>
<asrwt>0</asrwt>
<pdfrwt beam="1">  1        2 0.40137168E+00 0.46465078E+04</pdfrwt>
<pdfrwt beam="2">  1       -2 0.31828774E+00 0.46465078E+04</pdfrwt>
<totfact> 0.55235278E-02</totfact>
</mgrwt>
</event>
<event>
 8      1 +1.2359593e-08 5.03418000e+03 7.81860800e-03 7.82325600e-02
       -2 -1    0    0    0  501 -0.0000000000e+00 +0.0000000000e+00 +2.6282704048e+03 2.6282704048e+03 2.5500000000e-03 0.0000e+00 -1.0000e+00
        2 -1    0    0  501    0 +0.0000000000e+00 -0.0000000000e+00 -2.4106127223e+03 2.4106127223e+03 2.5500000000e-03 0.0000e+00 1.0000e+00
  1000011  2    1    2    0    0 +8.3275717478e+02 -5.0485257838e+02 +6.7894895197e+02 2.5440689485e+03 2.2501009971e+03 8.7068e+02 0.0000e+00
 -1000011  2    1    2    0    0 -8.3275717478e+02 +5.0485257838e+02 -4.6129126954e+02 2.4948141786e+03 2.2500994450e+03 6.8842e+02 0.0000e+00
       11  1    3    3    0    0 +7.2262753754e-02 +6.8349587694e-02 +1.9711097157e-04 9.9467941690e-02 5.1100000000e-04 0.0000e+00 1.0000e+00
  1000022  1    3    3    0    0 +8.3268491203e+02 -5.0492092797e+02 +6.7894875486e+02 2.5439694805e+03 2.2500000000e+03 0.0000e+00 0.0000e+00
      -11  1    4    4    0    0 +1.6769612986e-02 +1.0227631890e-01 -4.5544723517e-02 1.1320886892e-01 5.1100000000e-04 0.0000e+00 -1.0000e+00
  1000022  1    4    4    0    0 -8.3277394439e+02 +5.0475030206e+02 -4.6124572482e+02 2.4947009698e+03 2.2500000000e+03 0.0000e+00 0.0000e+00
<mgrwt>
<rscale>  0 0.50341800E+04</rscale>
<asrwt>0</asrwt>
<pdfrwt beam="1">  1        2 0.37086349E+00 0.50341800E+04</pdfrwt>
<pdfrwt beam="2">  1       -2 0.40434929E+00 0.50341800E+04</pdfrwt>
<totfact> 0.19801350E-02</totfact>
</mgrwt>
</event>
<event>
 8      1 +1.2359593e-08 5.13139600e+03 7.81860800e-03 7.80855200e-02
       -2 -1    0    0    0  501 -0.0000000000e+00 +0.0000000000e+00 +3.3941244620e+03 3.3941244620e+03 2.5500000000e-03 0.0000e+00 -1.0000e+00
        2 -1    0    0  501    0 +0.0000000000e+00 -0.0000000000e+00 -1.9394711595e+03 1.9394711595e+03 2.5500000000e-03 0.0000e+00 1.0000e+00
  1000011  2    1    2    0    0 -1.3780627803e+02 -7.2603769014e+02 -2.9833769691e+02 2.3870647473e+03 2.2501003152e+03 6.7835e+02 0.0000e+00
 -1000011  2    1    2    0    0 +1.3780627803e+02 +7.2603769014e+02 +1.7529909995e+03 2.9465308742e+03 2.2500989869e+03 1.9881e+02 0.0000e+00
       11  1    3    3    0    0 -1.2396349041e-02 +5.3668245995e-02 -6.7903275519e-02 8.7436065376e-02 5.1100000000e-04 0.0000e+00 1.0000e+00
  1000022  1    3    3    0    0 -1.3779388168e+02 -7.2609135838e+02 -2.9826979364e+02 2.3869773112e+03 2.2500000000e+03 0.0000e+00 0.0000e+00
      -11  1    4    4    0    0 -6.1559278769e-02 +1.8060673184e-02 +1.5989889545e-01 1.7228943667e-01 5.1100000000e-04 0.0000e+00 -1.0000e+00
  1000022  1    4    4    0    0 +1.3786783731e+02 +7.2601962946e+02 +1.7528311006e+03 2.9463585848e+03 2.2500000000e+03 0.0000e+00 0.0000e+00
<mgrwt>
<rscale>  0 0.51313961E+04</rscale>
<asrwt>0</asrwt>
<pdfrwt beam="1">  1        2 0.29838018E+00 0.51313961E+04</pdfrwt>
<pdfrwt beam="2">  1       -2 0.52217299E+00 0.51313961E+04</pdfrwt>
<totfact> 0.63718023E-03</totfact>
</mgrwt>
</event>
<event>
 8      1 +1.2359593e-08 5.05666300e+03 7.81860800e-03 7.81982500e-02
        2 -1    0    0  501    0 +0.0000000000e+00 +0.0000000000e+00 +3.8386060048e+03 3.8386060048e+03 2.5500000000e-03 0.0000e+00 1.0000e+00
       -2 -1    0    0    0  501 -0.0000000000e+00 -0.0000000000e+00 -1.6653079378e+03 1.6653079378e+03 2.5500000000e-03 0.0000e+00 -1.0000e+00
  1000011  2    1    2    0    0 +3.5922537034e+02 -4.6645136451e+02 +2.1657605671e+03 3.1780517638e+03 2.2500832068e+03 1.9872e+03 0.0000e+00
 -1000011  2    1    2    0    0 -3.5922537034e+02 +4.6645136451e+02 +7.5374999747e+00 2.3258621788e+03 2.2501018463e+03 5.1750e+01 0.0000e+00
       11  1    3    3    0    0 +9.7369148126e-02 -2.0097412522e-02 +9.9969822777e-02 1.4099249283e-01 5.1100000000e-04 0.0000e+00 1.0000e+00
  1000022  1    3    3    0    0 +3.5912800119e+02 -4.6643126710e+02 +2.1656605972e+03 3.1779107713e+03 2.2500000000e+03 0.0000e+00 0.0000e+00
      -11  1    4    4    0    0 -9.1716096831e-02 -2.2950608445e-02 -5.2038642984e-02 1.0792059214e-01 5.1100000000e-04 0.0000e+00 -1.0000e+00
  1000022  1    4    4    0    0 -3.5913365425e+02 +4.6647431512e+02 +7.5895386177e+00 2.3257542582e+03 2.2500000000e+03 0.0000e+00 0.0000e+00
<mgrwt>
<rscale>  0 0.50566633E+04</rscale>
<asrwt>0</asrwt>
<pdfrwt beam="1">  1        2 0.59055477E+00 0.50566633E+04</pdfrwt>
<pdfrwt beam="2">  1       -2 0.25620122E+00 0.50566633E+04</pdfrwt>
<totfact> 0.19502694E-02</totfact>
</mgrwt>
</event>
<event>
 8      1 +1.2359593e-08 5.34383700e+03 7.81860800e-03 7.77755000e-02
       -2 -1    0    0    0  501 -0.0000000000e+00 +0.0000000000e+00 +2.4524918592e+03 2.4524918592e+03 2.5500000000e-03 0.0000e+00 -1.0000e+00
        2 -1    0    0  501    0 +0.0000000000e+00 -0.0000000000e+00 -2.9109777124e+03 2.9109777124e+03 2.5500000000e-03 0.0000e+00 1.0000e+00
  1000011  2    1    2    0    0 -3.4005338944e+02 -6.4073462484e+02 +1.0203274886e+03 2.5749190864e+03 2.2501028756e+03 6.1151e+02 0.0000e+00
 -1000011  2    1    2    0    0 +3.4005338944e+02 +6.4073462484e+02 -1.4788133418e+03 2.7885504852e+03 2.2500994959e+03 8.5035e+02 0.0000e+00
       11  1    3    3    0    0 +1.8174688344e-02 +7.3105867469e-02 +3.7769538199e-02 8.4270906884e-02 5.1100000000e-04 0.0000e+00 1.0000e+00
  1000022  1    3    3    0    0 -3.4007156413e+02 -6.4080773071e+02 +1.0202897190e+03 2.5748348155e+03 2.2500000000e+03 0.0000e+00 0.0000e+00
      -11  1    4    4    0    0 -2.0056280539e-02 +2.0929827662e-02 +4.8802317619e-02 5.6764770269e-02 5.1100000000e-04 0.0000e+00 -1.0000e+00
  1000022  1    4    4    0    0 +3.4007344572e+02 +6.4071369501e+02 -1.4788621441e+03 2.7884937204e+03 2.2500000000e+03 0.0000e+00 0.0000e+00
<mgrwt>
<rscale>  0 0.53438373E+04</rscale>
<asrwt>0</asrwt>
<pdfrwt beam="1">  1        2 0.44784272E+00 0.53438373E+04</pdfrwt>
<pdfrwt beam="2">  1       -2 0.37730644E+00 0.53438373E+04</pdfrwt>
<totfact> 0.14605185E-02</totfact>
</mgrwt>
</event>
<event>
 8      1 +1.2359593e-08 4.94498400e+03 7.81860800e-03 7.83705000e-02
       -2 -1    0    0    0  501 -0.0000000000e+00 +0.0000000000e+00 +1.5488615817e+03 1.5488615817e+03 2.5500000000e-03 0.0000e+00 -1.0000e+00
        2 -1    0    0  501    0 +0.0000000000e+00 -0.0000000000e+00 -3.9469088695e+03 3.9469088695e+03 2.5500000000e-03 0.0000e+00 1.0000e+00
  1000011  2    1    2    0    0 -3.5450955383e+02 +9.0035231452e+02 -1.5741947398e+03 2.9115893887e+03 2.2501005257e+03 1.9291e+03 0.0000e+00
 -1000011  2    1    2    0    0 +3.5450955383e+02 -9.0035231452e+02 -8.2385254796e+02 2.5841810624e+03 2.2500994264e+03 1.9959e+03 0.0000e+00
       11  1    3    3    0    0 -1.0290598687e-01 +3.8902303067e-02 -1.3952538441e-01 1.7768124506e-01 5.1100000000e-04 0.0000e+00 1.0000e+00
  1000022  1    3    3    0    0 -3.5440664785e+02 +9.0031341222e+02 -1.5740552144e+03 2.9114117075e+03 2.2500000000e+03 0.0000e+00 0.0000e+00
      -11  1    4    4    0    0 -7.1232157970e-02 -8.7679087647e-02 -2.9577354698e-02 1.1677638195e-01 5.1100000000e-04 0.0000e+00 -1.0000e+00
  1000022  1    4    4    0    0 +3.5458078599e+02 -9.0026463544e+02 -8.2382297061e+02 2.5840642861e+03 2.2500000000e+03 0.0000e+00 0.0000e+00
<mgrwt>
<rscale>  0 0.49449835E+04</rscale>
<asrwt>0</asrwt>
<pdfrwt beam="1">  1        2 0.60721674E+00 0.49449835E+04</pdfrwt>
<pdfrwt beam="2">  1       -2 0.23828640E+00 0.49449835E+04</pdfrwt>
<totfact> 0.20860443E-02</totfact>
</mgrwt>
</event>
<event>
 8      1 +1.2359593e-08 5.91384600e+03 7.81860800e-03 7.70117600e-02
        2 -1    0    0  501    0 +0.0000000000e+00 +0.0000000000e+00 +3.8553327935e+03 3.8553327935e+03 2.5500000000e-03 0.0000e+00 1.0000e+00
       -2 -1    0    0    0  501 -0.0000000000e+00 -0.0000000000e+00 -2.2678702806e+03 2.2678702806e+03 2.5500000000e-03 0.0000e+00 -1.0000e+00
  1000011  2    1    2    0    0 -1.7814449115e+03 -5.6432158451e+02 +3.4427084012e+02 2.9450785234e+03 2.2501022808e+03 2.6917e+03 0.0000e+00
 -1000011  2    1    2    0    0 +1.7814449115e+03 +5.6432158451e+02 +1.2431916728e+03 3.1781245508e+03 2.2500989537e+03 7.6846e+02 0.0000e+00
       11  1    3    3    0    0 +4.4243813953e-02 +1.3590064689e-02 -1.0752617941e-02 4.7519305110e-02 5.1100000000e-04 0.0000e+00 1.0000e+00
  1000022  1    3    3    0    0 -1.7814891553e+03 -5.6433517458e+02 +3.4428159274e+02 2.9450310041e+03 2.2500000000e+03 0.0000e+00 0.0000e+00
      -11  1    4    4    0    0 +2.5109571234e-02 +9.4672654639e-02 -7.0157350987e-03 9.8198183469e-02 5.1100000000e-04 0.0000e+00 -1.0000e+00
  1000022  1    4    4    0    0 +1.7814198019e+03 +5.6422691186e+02 +1.2431986885e+03 3.1780263526e+03 2.2500000000e+03 0.0000e+00 0.0000e+00
<mgrwt>
<rscale>  0 0.59138464E+04</rscale>
<asrwt>0</asrwt>
<pdfrwt beam="1">  1        2 0.59312812E+00 0.59138464E+04</pdfrwt>
<pdfrwt beam="2">  1       -2 0.34890312E+00 0.59138464E+04</pdfrwt>
<totfact> 0.47509757E-03</totfact>
</mgrwt>
</event>
<event>
 8      1 +1.2359593e-08 5.47343100e+03 7.81860800e-03 7.75935600e-02
       -2 -1    0    0    0  501 -0.0000000000e+00 +0.0000000000e+00 +2.9409060234e+03 2.9409060234e+03 2.5500000000e-03 0.0000e+00 -1.0000e+00
        2 -1    0    0  501    0 +0.0000000000e+00 -0.0000000000e+00 -2.5467023061e+03 2.5467023061e+03 2.5500000000e-03 0.0000e+00 1.0000e+00
  1000011  2    1    2    0    0 +1.4601090471e+03 +8.9746804690e+01 -3.3971755752e+02 2.7052415496e+03 2.2501001988e+03 1.4452e+03 0.0000e+00
 -1000011  2    1    2    0    0 -1.4601090471e+03 -8.9746804690e+01 +7.3392127478e+02 2.7823667799e+03 2.2501003404e+03 1.2727e+03 0.0000e+00
       11  1    3    3    0    0 -4.0282681115e-02 -3.6152137440e-02 +2.0380284708e-02 5.7838468112e-02 5.1100000000e-04 0.0000e+00 1.0000e+00
  1000022  1    3    3    0    0 +1.4601493298e+03 +8.9782956828e+01 -3.3973793781e+02 2.7051837111e+03 2.2500000000e+03 0.0000e+00 0.0000e+00
      -11  1    4    4    0    0 -9.0908297646e-02 +4.3267035453e-02 +1.2484799716e-01 1.6038590400e-01 5.1100000000e-04 0.0000e+00 -1.0000e+00
  1000022  1    4    4    0    0 -1.4600181388e+03 -8.9790071726e+01 +7.3379642678e+02 2.7822063940e+03 2.2500000000e+03 0.0000e+00 0.0000e+00
<mgrwt>
<rscale>  0 0.54734312E+04</rscale>
<asrwt>0</asrwt>
<pdfrwt beam="1">  1        2 0.39180036E+00 0.54734312E+04</pdfrwt>
<pdfrwt beam="2">  1       -2 0.45244708E+00 0.54734312E+04</pdfrwt>
<totfact> 0.76995201E-03</totfact>
</mgrwt>
</event>
<event>
 8      1 +1.2359593e-08 4.63955400e+03 7.81860800e-03 7.88665000e-02
       -2 -1    0    0    0  501 -0.0000000000e+00 +0.0000000000e+00 +1.2352051379e+03 1.2352051379e+03 2.5500000000e-03 0.0000e+00 -1.0000e+00
        2 -1    0    0  501    0 +0.0000000000e+00 -0.0000000000e+00 -4.3566566102e+03 4.3566566102e+03 2.5500000000e-03 0.0000e+00 1.0000e+00
  1000011  2    1    2    0    0 -1.6145613963e+02 +5.3808305896e+02 -1.6245970353e+03 2.8315849287e+03 2.2501013795e+03 6.5575e+02 0.0000e+00
 -1000011  2    1    2    0    0 +1.6145613963e+02 -5.3808305896e+02 -1.4968544369e+03 2.7602768194e+03 2.2501007646e+03 4.1709e+03 0.0000e+00
       11  1    3    3    0    0 -8.6164576684e-02 +9.1277409494e-02 -8.5931457946e-02 1.5211961106e-01 5.1100000000e-04 0.0000e+00 1.0000e+00
  1000022  1    3    3    0    0 -1.6136997506e+02 +5.3799178155e+02 -1.6245111039e+03 2.8314328091e+03 2.2500000000e+03 0.0000e+00 0.0000e+00
      -11  1    4    4    0    0 -2.2342497958e-02 +1.5296239752e-02 +4.5661432525e-02 5.3088504319e-02 5.1100000000e-04 0.0000e+00 -1.0000e+00
  1000022  1    4    4    0    0 +1.6147848213e+02 -5.3809835520e+02 -1.4969000984e+03 2.7602237309e+03 2.2500000000e+03 0.0000e+00 0.0000e+00
<mgrwt>
<rscale>  0 0.46395537E+04</rscale>
<asrwt>0</asrwt>
<pdfrwt beam="1">  1        2 0.67025486E+00 0.46395537E+04</pdfrwt>
<pdfrwt beam="2">  1       -2 0.19003156E+00 0.46395537E+04</pdfrwt>
<totfact> 0.19403673E-02</totfact>
</mgrwt>
</event>
<event>
 8      1 +1.2359593e-08 4.84350000e+03 7.81860800e-03 7.85311300e-02
       -2 -1    0    0    0  501 -0.0000000000e+00 +0.0000000000e+00 +4.1990326807e+03 4.1990326807e+03 2.5500000000e-03 0.0000e+00 -1.0000e+00
        2 -1    0    0  501    0 +0.0000000000e+00 -0.0000000000e+00 -1.3967197978e+03 1.3967197978e+03 2.5500000000e-03 0.0000e+00 1.0000e+00
  1000011  2    1    2    0    0 -2.2906142760e+02 +1.3666276209e+02 +2.3887678156e+03 3.2924620426e+03 2.2500997261e+03 8.5405e+01 0.0000e+00
 -1000011  2    1    2    0    0 +2.2906142760e+02 -1.3666276209e+02 +4.1354506739e+02 2.3032904359e+03 2.2501069888e+03 8.0508e+02 0.0000e+00
       11  1    3    3    0    0 -1.0943844290e-01 +2.0103583174e-02 +1.2143871277e-01 1.6470746477e-01 5.1100000000e-04 0.0000e+00 1.0000e+00
  1000022  1    3    3    0    0 -2.2895198915e+02 +1.3664265851e+02 +2.3886463768e+03 3.2922973352e+03 2.2500000000e+03 0.0000e+00 0.0000e+00
      -11  1    4    4    0    0 +2.2347850627e-02 +8.2775852466e-02 -4.0054226187e-02 9.4635458556e-02 5.1100000000e-04 0.0000e+00 -1.0000e+00
  1000022  1    4    4    0    0 +2.2903907974e+02 -1.3674553794e+02 +4.1358512161e+02 2.3031958004e+03 2.2500000000e+03 0.0000e+00 0.0000e+00
<mgrwt>
<rscale>  0 0.48434996E+04</rscale>
<asrwt>0</asrwt>
<pdfrwt beam="1">  1        2 0.21487997E+00 0.48434996E+04</pdfrwt>
<pdfrwt beam="2">  1       -2 0.64600503E+00 0.48434996E+04</pdfrwt>
<totfact> 0.37439209E-03</totfact>
</mgrwt>
</event>
<event>
 8      1 +1.2359593e-08 4.74274900e+03 7.81860800e-03 7.86946400e-02
        2 -1    0    0  501    0 +0.0000000000e+00 +0.0000000000e+00 +2.2463556001e+03 2.2463556001e+03 2.5500000000e-03 0.0000e+00 1.0000e+00
       -2 -1    0    0    0  501 -0.0000000000e+00 -0.0000000000e+00 -2.5033516991e+03 2.5033516991e+03 2.5500000000e-03 0.0000e+00 -1.0000e+00
  1000011  2    1    2    0    0 -3.1874215850e+01 -1.4004710811e+02 +6.0732227371e+02 2.3350383228e+03 2.2500965461e+03 1.3370e+02 0.0000e+00
 -1000011  2    1    2    0    0 +3.1874215850e+01 +1.4004710811e+02 -8.6431837276e+02 2.4146689764e+03 2.2501001884e+03 5.7940e+02 0.0000e+00
       11  1    3    3    0    0 -9.3462869734e-02 -1.7057808683e-03 +5.6020376510e-02 1.0898055348e-01 5.1100000000e-04 0.0000e+00 1.0000e+00
  1000022  1    3    3    0    0 -3.1780752980e+01 -1.4004540233e+02 +6.0726625333e+02 2.3349293423e+03 2.2500000000e+03 0.0000e+00 0.0000e+00
      -11  1    4    4    0    0 -4.2658787938e-02 +8.2532654061e-02 -9.1309593076e-02 1.3026554990e-01 5.1100000000e-04 0.0000e+00 -1.0000e+00
  1000022  1    4    4    0    0 +3.1916874638e+01 +1.3996457545e+02 -8.6422706317e+02 2.4145387108e+03 2.2500000000e+03 0.0000e+00 0.0000e+00
<mgrwt>
<rscale>  0 0.47427495E+04</rscale>
<asrwt>0</asrwt>
<pdfrwt beam="1">  1        2 0.34559317E+00 0.47427495E+04</pdfrwt>
<pdfrwt beam="2">  1       -2 0.38513103E+00 0.47427495E+04</pdfrwt>
<totfact> 0.33519039E-02</totfact>
</mgrwt>
</event>
<event>
 8      1 +1.2359593e-08 4.99719200e+03 7.81860800e-03 7.82894000e-02
       -2 -1    0    0    0  501 -0.0000000000e+00 +0.0000000000e+00 +1.6527973815e+03 1.6527973815e+03 2.5500000000e-03 0.0000e+00 -1.0000e+00
        2 -1    0    0  501    0 +0.0000000000e+00 -0.0000000000e+00 -3.7772221957e+03 3.7772221957e+03 2.5500000000e-03 0.0000e+00 1.0000e+00
  1000011  2    1    2    0    0 -7.4944992893e+02 -7.6316857096e+02 -1.2681823612e+03 2.7955935039e+03 2.2501011253e+03 1.0569e+03 0.0000e+00
 -1000011  2    1    2    0    0 +7.4944992893e+02 +7.6316857096e+02 -8.5624245296e+02 2.6344260733e+03 2.2500995831e+03 1.7285e+03 0.0000e+00
       11  1    3    3    0    0 -7.3380826418e-03 -1.2793932185e-01 -2.8789658695e-02 1.3134467127e-01 5.1100000000e-04 0.0000e+00 1.0000e+00
  1000022  1    3    3    0    0 -7.4944259084e+02 -7.6304063164e+02 -1.2681535716e+03 2.7954621592e+03 2.2500000000e+03 0.0000e+00 0.0000e+00
      -11  1    4    4    0    0 +1.3187926055e-02 +7.7416343986e-02 +5.2162182772e-02 9.4278129455e-02 5.1100000000e-04 0.0000e+00 -1.0000e+00
  1000022  1    4    4    0    0 +7.4943674100e+02 +7.6309115462e+02 -8.5629461514e+02 2.6343317951e+03 2.2500000000e+03 0.0000e+00 0.0000e+00
<mgrwt>
<rscale>  0 0.49971924E+04</rscale>
<asrwt>0</asrwt>
<pdfrwt beam="1">  1        2 0.58111111E+00 0.49971924E+04</pdfrwt>
<pdfrwt beam="2">  1       -2 0.25427652E+00 0.49971924E+04</pdfrwt>
<totfact> 0.22435870E-02</totfact>
</mgrwt>
</event>
<event>
 8      1 +1.2359593e-08 5.82075100e+03 7.81860800e-03 7.71303200e-02
       -2 -1    0    0    0  501 -0.0000000000e+00 +0.0000000000e+00 +3.5189033682e+03 3.5189033682e+03 2.5500000000e-03 0.0000e+00 -1.0000e+00
        2 -1    0    0  501    0 +0.0000000000e+00 -0.0000000000e+00 -2.4070810527e+03 2.4070810527e+03 2.5500000000e-03 0.0000e+00 1.0000e+00
  1000011  2    1    2    0    0 +3.5468249088e+02 +3.9574556201e+02 -1.2437931033e+03 2.6253352920e+03 2.2500999738e+03 5.4099e+02 0.0000e+00
 -1000011  2    1    2    0    0 -3.5468249088e+02 -3.9574556201e+02 +2.3556154188e+03 3.3006491289e+03 2.2500992093e+03 1.1589e+02 0.0000e+00
       11  1    3    3    0    0 -4.6780686178e-02 +7.8535521496e-02 -4.5137186001e-04 9.1415126439e-02 5.1100000000e-04 0.0000e+00 1.0000e+00
  1000022  1    3    3    0    0 +3.5472927156e+02 +3.9566702649e+02 -1.2437926519e+03 2.6252438768e+03 2.2500000000e+03 0.0000e+00 0.0000e+00
      -11  1    4    4    0    0 -5.4394923090e-02 +7.0203508734e-02 +5.5825178055e-02 1.0490019901e-01 5.1100000000e-04 0.0000e+00 -1.0000e+00
  1000022  1    4    4    0    0 -3.5462809595e+02 -3.9581576552e+02 +2.3555595936e+03 3.3005442287e+03 2.2500000000e+03 0.0000e+00 0.0000e+00
<mgrwt>
<rscale>  0 0.58207510E+04</rscale>
<asrwt>0</asrwt>
<pdfrwt beam="1">  1        2 0.37032016E+00 0.58207510E+04</pdfrwt>
<pdfrwt beam="2">  1       -2 0.54136975E+00 0.58207510E+04</pdfrwt>
<totfact> 0.25887066E-03</totfact>
</mgrwt>
</event>
<event>
 8      1 +1.2359593e-08 4.80188000e+03 7.81860800e-03 7.85981800e-02
       -1 -1    0    0    0  501 -0.0000000000e+00 +0.0000000000e+00 +1.3515746248e+03 1.3515746248e+03 5.0400000000e-03 0.0000e+00 1.0000e+00
        1 -1    0    0  501    0 +0.0000000000e+00 -0.0000000000e+00 -4.2650354975e+03 4.2650354975e+03 5.0400000000e-03 0.0000e+00 -1.0000e+00
  1000011  2    1    2    0    0 -8.2456069606e+02 -1.3016704453e+02 -1.3763918860e+03 2.7666310694e+03 2.2500997866e+03 4.8162e+02 0.0000e+00
 -1000011  2    1    2    0    0 +8.2456069606e+02 +1.3016704453e+02 -1.5370689868e+03 2.8499790528e+03 2.2501012712e+03 3.0690e+02 0.0000e+00
       11  1    3    3    0    0 -1.7928752489e-02 +4.8945733001e-02 +3.8716856347e-02 6.4933661220e-02 5.1100000000e-04 0.0000e+00 1.0000e+00
  1000022  1    3    3    0    0 -8.2454276730e+02 -1.3021599026e+02 -1.3764306028e+03 2.7665661358e+03 2.2500000000e+03 0.0000e+00 0.0000e+00
      -11  1    4    4    0    0 +1.4177691694e-01 -1.0294943831e-02 -7.2132898092e-02 1.5940544466e-01 5.1100000000e-04 0.0000e+00 -1.0000e+00
  1000022  1    4    4    0    0 +8.2441891914e+02 +1.3017733947e+02 -1.5369968539e+03 2.8498196474e+03 2.2500000000e+03 0.0000e+00 0.0000e+00
<mgrwt>
<rscale>  0 0.48018804E+04</rscale>
<asrwt>0</asrwt>
<pdfrwt beam="1">  1        1 0.65615930E+00 0.48018804E+04</pdfrwt>
<pdfrwt beam="2">  1       -1 0.20793456E+00 0.48018804E+04</pdfrwt>
<totfact> 0.53220024E-03</totfact>
</mgrwt>
</event>
<event>
 8      1 +1.2359593e-08 4.73475100e+03 7.81860800e-03 7.87078000e-02
       -2 -1    0    0    0  501 -0.0000000000e+00 +0.0000000000e+00 +2.0290196138e+03 2.0290196138e+03 2.5500000000e-03 0.0000e+00 -1.0000e+00
        2 -1    0    0  501    0 +0.0000000000e+00 -0.0000000000e+00 -2.7621549815e+03 2.7621549815e+03 2.5500000000e-03 0.0000e+00 1.0000e+00
  1000011  2    1    2    0    0 +4.7014972232e+02 +5.4128556070e+02 -1.9881537653e+02 2.3699194624e+03 2.2501021943e+03 4.0581e+02 0.0000e+00
 -1000011  2    1    2    0    0 -4.7014972232e+02 -5.4128556070e+02 -5.3431999111e+02 2.4212551329e+03 2.2500994969e+03 2.9328e+01 0.0000e+00
       11  1    3    3    0    0 +3.6923374412e-02 +3.8852883924e-03 -1.0810832310e-01 1.1430704726e-01 5.1100000000e-04 0.0000e+00 1.0000e+00
  1000022  1    3    3    0    0 +4.7011279894e+02 +5.4128167541e+02 -1.9870726821e+02 2.3698051553e+03 2.2500000000e+03 0.0000e+00 0.0000e+00
      -11  1    4    4    0    0 -5.1878567558e-02 +4.7500828760e-02 +4.2977197564e-02 8.2431878463e-02 5.1100000000e-04 0.0000e+00 -1.0000e+00
  1000022  1    4    4    0    0 -4.7009784375e+02 -5.4133306153e+02 -5.3436296831e+02 2.4211727010e+03 2.2500000000e+03 0.0000e+00 0.0000e+00
<mgrwt>
<rscale>  0 0.47347509E+04</rscale>
<asrwt>0</asrwt>
<pdfrwt beam="1">  1        2 0.42494692E+00 0.47347509E+04</pdfrwt>
<pdfrwt beam="2">  1       -2 0.31215686E+00 0.47347509E+04</pdfrwt>
<totfact> 0.48494734E-02</totfact>
</mgrwt>
</event>
<event>
 8      1 +1.2359593e-08 4.69786300e+03 7.81860800e-03 7.87688400e-02
       -2 -1    0    0    0  501 -0.0000000000e+00 +0.0000000000e+00 +4.3655373823e+03 4.3655373823e+03 2.5500000000e-03 0.0000e+00 -1.0000e+00
        2 -1    0    0  501    0 +0.0000000000e+00 -0.0000000000e+00 -1.2638716427e+03 1.2638716427e+03 2.5500000000e-03 0.0000e+00 1.0000e+00
  1000011  2    1    2    0    0 +2.7406375437e+02 +5.5444158953e+02 +1.8724117742e+03 2.9918899858e+03 2.2501029793e+03 2.7239e+03 0.0000e+00
 -1000011  2    1    2    0    0 -2.7406375437e+02 -5.5444158953e+02 +1.2292539655e+03 2.6375190392e+03 2.2500944320e+03 1.8441e+03 0.0000e+00
       11  1    3    3    0    0 +3.0071207553e-02 -1.7234851147e-02 -3.9306043735e-02 5.2407473483e-02 5.1100000000e-04 0.0000e+00 1.0000e+00
  1000022  1    3    3    0    0 +2.7403368316e+02 +5.5445882438e+02 +1.8724510802e+03 2.9918375783e+03 2.2500000000e+03 0.0000e+00 0.0000e+00
      -11  1    4    4    0    0 +5.9985452924e-02 +3.2899620749e-02 +7.8032200651e-02 1.0377824913e-01 5.1100000000e-04 0.0000e+00 -1.0000e+00
  1000022  1    4    4    0    0 -2.7412373982e+02 -5.5447448915e+02 +1.2291759333e+03 2.6374152610e+03 2.2500000000e+03 0.0000e+00 0.0000e+00
<mgrwt>
<rscale>  0 0.46978629E+04</rscale>
<asrwt>0</asrwt>
<pdfrwt beam="1">  1        2 0.19444179E+00 0.46978629E+04</pdfrwt>
<pdfrwt beam="2">  1       -2 0.67162114E+00 0.46978629E+04</pdfrwt>
<totfact> 0.37087152E-03</totfact>
</mgrwt>
</event>
<event>
 8      1 +1.2359593e-08 5.29561200e+03 7.81860800e-03 7.78445700e-02
       -2 -1    0    0    0  501 -0.0000000000e+00 +0.0000000000e+00 +1.8225155229e+03 1.8225155229e+03 2.5500000000e-03 0.0000e+00 -1.0000e+00
        2 -1    0    0  501    0 +0.0000000000e+00 -0.0000000000e+00 -3.8468126620e+03 3.8468126620e+03 2.5500000000e-03 0.0000e+00 1.0000e+00
  1000011  2    1    2    0    0 -1.0946940593e+03 -7.7588700550e+02 -1.4233998105e+03 2.9815053936e+03 2.2501003673e+03 1.1669e+02 0.0000e+00
 -1000011  2    1    2    0    0 +1.0946940593e+03 +7.7588700550e+02 -6.0089732851e+02 2.6878227913e+03 2.2501017820e+03 9.6931e+02 0.0000e+00
       11  1    3    3    0    0 -5.7612465414e-02 +2.9040115821e-02 -1.4467385865e-01 1.5840868161e-01 5.1100000000e-04 0.0000e+00 1.0000e+00
  1000022  1    3    3    0    0 -1.0946364468e+03 -7.7591604562e+02 -1.4232551367e+03 2.9813469850e+03 2.2500000000e+03 0.0000e+00 0.0000e+00
      -11  1    4    4    0    0 -4.8698608463e-02 +3.5240418477e-02 +3.2414863689e-02 6.8296601151e-02 5.1100000000e-04 0.0000e+00 -1.0000e+00
  1000022  1    4    4    0    0 +1.0947427579e+03 +7.7585176508e+02 -6.0092974338e+02 2.6877544947e+03 2.2500000000e+03 0.0000e+00 0.0000e+00
<mgrwt>
<rscale>  0 0.52956117E+04</rscale>
<asrwt>0</asrwt>
<pdfrwt beam="1">  1        2 0.59181733E+00 0.52956117E+04</pdfrwt>
<pdfrwt beam="2">  1       -2 0.28038700E+00 0.52956117E+04</pdfrwt>
<totfact> 0.13417478E-02</totfact>
</mgrwt>
</event>
<event>
 8      1 +1.2359593e-08 5.12080300e+03 7.81860800e-03 7.81013800e-02
       -2 -1    0    0    0  501 -0.0000000000e+00 +0.0000000000e+00 +4.5441894565e+03 4.5441894565e+03 2.5500000000e-03 0.0000e+00 -1.0000e+00
        2 -1    0    0  501    0 +0.0000000000e+00 -0.0000000000e+00 -1.4426458167e+03 1.4426458167e+03 2.5500000000e-03 0.0000e+00 1.0000e+00
  1000011  2    1    2    0    0 -1.2593680689e+01 -1.0621842499e+03 +8.4513199064e+02 2.6278566988e+03 2.2501086121e+03 3.3983e+02 0.0000e+00
 -1000011  2    1    2    0    0 +1.2593680689e+01 +1.0621842499e+03 +2.2564116492e+03 3.3589785744e+03 2.2500998980e+03 5.6845e+02 0.0000e+00
       11  1    3    3    0    0 +8.3859578277e-02 -1.2548759161e-01 +3.9385203145e-02 1.5598403579e-01 5.1100000000e-04 0.0000e+00 1.0000e+00
  1000022  1    3    3    0    0 -1.2677540267e+01 -1.0620587623e+03 +8.4509260543e+02 2.6277007148e+03 2.2500000000e+03 0.0000e+00 0.0000e+00
      -11  1    4    4    0    0 -1.2390080484e-02 +5.7907833487e-02 +2.3734252941e-01 2.4461923108e-01 5.1100000000e-04 0.0000e+00 -1.0000e+00
  1000022  1    4    4    0    0 +1.2606070769e+01 +1.0621263421e+03 +2.2561743067e+03 3.3587339552e+03 2.2500000000e+03 0.0000e+00 0.0000e+00
<mgrwt>
<rscale>  0 0.51208030E+04</rscale>
<asrwt>0</asrwt>
<pdfrwt beam="1">  1        2 0.22194552E+00 0.51208030E+04</pdfrwt>
<pdfrwt beam="2">  1       -2 0.69910605E+00 0.51208030E+04</pdfrwt>
<totfact> 0.22837045E-03</totfact>
</mgrwt>
</event>
<event>
 8      1 +1.2359593e-08 5.42381700e+03 7.81860800e-03 7.76626000e-02
        2 -1    0    0  501    0 +0.0000000000e+00 +0.0000000000e+00 +4.8839263923e+03 4.8839263923e+03 2.5500000000e-03 0.0000e+00 1.0000e+00
       -2 -1    0    0    0  501 -0.0000000000e+00 -0.0000000000e+00 -1.5058471180e+03 1.5058471180e+03 2.5500000000e-03 0.0000e+00 -1.0000e+00
  1000011  2    1    2    0    0 +6.6508413945e+02 +7.3469810894e+02 +3.0371013527e+03 3.9075635645e+03 2.2501000333e+03 2.0051e+03 0.0000e+00
 -1000011  2    1    2    0    0 -6.6508413945e+02 -7.3469810894e+02 +3.4097792150e+02 2.4822099458e+03 2.2501071193e+03 5.5354e+02 0.0000e+00
       11  1    3    3    0    0 +9.8593294740e-02 +8.6435304182e-02 +2.7271407176e-01 3.0259696818e-01 5.1100000000e-04 0.0000e+00 1.0000e+00
  1000022  1    3    3    0    0 +6.6498554616e+02 +7.3461167364e+02 +3.0368286386e+03 3.9072609675e+03 2.2500000000e+03 0.0000e+00 0.0000e+00
      -11  1    4    4    0    0 +3.7325349489e-02 -4.3481434821e-02 -6.9876876711e-02 9.0370656283e-02 5.1100000000e-04 0.0000e+00 -1.0000e+00
  1000022  1    4    4    0    0 -6.6512146480e+02 -7.3465462751e+02 +3.4104779838e+02 2.4821195752e+03 2.2500000000e+03 0.0000e+00 0.0000e+00
<mgrwt>
<rscale>  0 0.54238165E+04</rscale>
<asrwt>0</asrwt>
<pdfrwt beam="1">  1        2 0.75137329E+00 0.54238165E+04</pdfrwt>
<pdfrwt beam="2">  1       -2 0.23166879E+00 0.54238165E+04</pdfrwt>
<totfact> 0.27503999E-03</totfact>
</mgrwt>
</event>
<event>
 8      1 +1.2359593e-08 4.63939000e+03 7.81860800e-03 7.88667800e-02
        2 -1    0    0  501    0 +0.0000000000e+00 +0.0000000000e+00 +1.4971726294e+03 1.4971726294e+03 2.5500000000e-03 0.0000e+00 1.0000e+00
       -2 -1    0    0    0  501 -0.0000000000e+00 -0.0000000000e+00 -3.5940985320e+03 3.5940985320e+03 2.5500000000e-03 0.0000e+00 -1.0000e+00
  1000011  2    1    2    0    0 +3.2705087833e+02 -3.9098118809e+02 -7.8367775674e+02 2.4365813956e+03 2.2500998877e+03 7.1206e+02 0.0000e+00
 -1000011  2    1    2    0    0 -3.2705087833e+02 +3.9098118809e+02 -1.3132481459e+03 2.6546897658e+03 2.2500952188e+03 2.1567e+03 0.0000e+00
       11  1    3    3    0    0 +1.1332025280e-01 -2.1857735426e-02 -1.8345702561e-02 1.1685917063e-01 5.1100000000e-04 0.0000e+00 1.0000e+00
  1000022  1    3    3    0    0 +3.2693755808e+02 -3.9095933036e+02 -7.8365941104e+02 2.4364645365e+03 2.2500000000e+03 0.0000e+00 0.0000e+00
      -11  1    4    4    0    0 -2.3739588048e-02 -7.8351038403e-02 -6.2575356917e-02 1.0304557026e-01 5.1100000000e-04 0.0000e+00 -1.0000e+00
  1000022  1    4    4    0    0 -3.2702713875e+02 +3.9105953913e+02 -1.3131855705e+03 2.6545867202e+03 2.2500000000e+03 0.0000e+00 0.0000e+00
<mgrwt>
<rscale>  0 0.46393905E+04</rscale>
<asrwt>0</asrwt>
<pdfrwt beam="1">  1        2 0.23033425E+00 0.46393905E+04</pdfrwt>
<pdfrwt beam="2">  1       -2 0.55293824E+00 0.46393905E+04</pdfrwt>
<totfact> 0.79260023E-03</totfact>
</mgrwt>
</event>
<event>
 8      1 +1.2359593e-08 5.31861800e+03 7.81860800e-03 7.78115300e-02
        2 -1    0    0  501    0 +0.0000000000e+00 +0.0000000000e+00 +3.9244098853e+03 3.9244098853e+03 2.5500000000e-03 0.0000e+00 1.0000e+00
       -2 -1    0    0    0  501 -0.0000000000e+00 -0.0000000000e+00 -1.8020352751e+03 1.8020352751e+03 2.5500000000e-03 0.0000e+00 -1.0000e+00
  1000011  2    1    2    0    0 +1.3298761356e+03 -4.8560939703e+02 +1.1341059045e+03 2.8902476024e+03 2.2500995484e+03 2.9696e+02 0.0000e+00
 -1000011  2    1    2    0    0 -1.3298761356e+03 +4.8560939703e+02 +9.8826870559e+02 2.8361975580e+03 2.2501010046e+03 6.2440e+02 0.0000e+00
       11  1    3    3    0    0 -2.2820728288e-03 -1.3519956469e-02 +1.2835287642e-01 1.2908415312e-01 5.1100000000e-04 0.0000e+00 1.0000e+00
  1000022  1    3    3    0    0 +1.3298784177e+03 -4.8559587707e+02 +1.1339775517e+03 2.8901185182e+03 2.2500000000e+03 0.0000e+00 0.0000e+00
      -11  1    4    4    0    0 +2.6737392842e-02 -5.2189419984e-02 +4.6572070182e-02 7.4885525966e-02 5.1100000000e-04 0.0000e+00 -1.0000e+00
  1000022  1    4    4    0    0 -1.3299028730e+03 +4.8566158645e+02 +9.8822213352e+02 2.8361226725e+03 2.2500000000e+03 0.0000e+00 0.0000e+00
<mgrwt>
<rscale>  0 0.53186183E+04</rscale>
<asrwt>0</asrwt>
<pdfrwt beam="1">  1        2 0.60375537E+00 0.53186183E+04</pdfrwt>
<pdfrwt beam="2">  1       -2 0.27723620E+00 0.53186183E+04</pdfrwt>
<totfact> 0.12168923E-02</totfact>
</mgrwt>
</event>
<event>
 8      1 +1.2359593e-08 5.05838900e+03 7.81860800e-03 7.81956300e-02
        2 -1    0    0  501    0 +0.0000000000e+00 +0.0000000000e+00 +2.1321868694e+03 2.1321868694e+03 2.5500000000e-03 0.0000e+00 1.0000e+00
       -2 -1    0    0    0  501 -0.0000000000e+00 -0.0000000000e+00 -3.0001235887e+03 3.0001235887e+03 2.5500000000e-03 0.0000e+00 -1.0000e+00
  1000011  2    1    2    0    0 -9.7224548327e+02 +3.7080477093e+02 -9.4240401930e+02 2.6521401749e+03 2.2501032673e+03 5.9236e+02 0.0000e+00
 -1000011  2    1    2    0    0 +9.7224548327e+02 -3.7080477093e+02 +7.4467300024e+01 2.4801702833e+03 2.2500981751e+03 3.8968e+01 0.0000e+00
       11  1    3    3    0    0 -3.4381726691e-02 +1.5206975563e-02 +6.8386778773e-02 7.8040805702e-02 5.1100000000e-04 0.0000e+00 1.0000e+00
  1000022  1    3    3    0    0 -9.7221110154e+02 +3.7078956396e+02 -9.4247240608e+02 2.6520621341e+03 2.2500000000e+03 0.0000e+00 0.0000e+00
      -11  1    4    4    0    0 +1.4659471880e-01 -2.1004254580e-02 -1.7661929467e-02 1.4914219703e-01 5.1100000000e-04 0.0000e+00 -1.0000e+00
  1000022  1    4    4    0    0 +9.7209888855e+02 -3.7078376668e+02 +7.4484961954e+01 2.4800211411e+03 2.2500000000e+03 0.0000e+00 0.0000e+00
<mgrwt>
<rscale>  0 0.50583887E+04</rscale>
<asrwt>0</asrwt>
<pdfrwt beam="1">  1        2 0.32802875E+00 0.50583887E+04</pdfrwt>
<pdfrwt beam="2">  1       -2 0.46155748E+00 0.50583887E+04</pdfrwt>
<totfact> 0.11940371E-02</totfact>
</mgrwt>
</event>
<event>
 8      1 +1.2359593e-08 6.04017400e+03 7.81860800e-03 7.68544100e-02
       -2 -1    0    0    0  501 -0.0000000000e+00 +0.0000000000e+00 +3.0692387186e+03 3.0692387186e+03 2.5500000000e-03 0.0000e+00 -1.0000e+00
        2 -1    0    0  501    0 +0.0000000000e+00 -0.0000000000e+00 -2.9717220966e+03 2.9717220966e+03 2.5500000000e-03 0.0000e+00 1.0000e+00
  1000011  2    1    2    0    0 +1.6925701982e+03 -3.9523632618e+02 -9.6969107220e+02 3.0040398647e+03 2.2500997987e+03 1.6392e+02 0.0000e+00
 -1000011  2    1    2    0    0 -1.6925701982e+03 +3.9523632618e+02 +1.0672076942e+03 3.0369209505e+03 2.2501002128e+03 1.5680e+03 0.0000e+00
       11  1    3    3    0    0 -4.5969893530e-02 -5.5038981723e-03 +8.0077807082e-03 4.6988397684e-02 5.1100000000e-04 0.0000e+00 1.0000e+00
  1000022  1    3    3    0    0 +1.6926161681e+03 -3.9523082229e+02 -9.6969907998e+02 3.0039928763e+03 2.2500000000e+03 0.0000e+00 0.0000e+00
      -11  1    4    4    0    0 -1.2196895588e-01 -2.1738804989e-02 +1.4409188017e-01 1.9003087212e-01 5.1100000000e-04 0.0000e+00 -1.0000e+00
  1000022  1    4    4    0    0 -1.6924482293e+03 +3.9525806499e+02 +1.0670636023e+03 3.0367309196e+03 2.2500000000e+03 0.0000e+00 0.0000e+00
<mgrwt>
<rscale>  0 0.60401737E+04</rscale>
<asrwt>0</asrwt>
<pdfrwt beam="1">  1        2 0.45718802E+00 0.60401737E+04</pdfrwt>
<pdfrwt beam="2">  1       -2 0.47219057E+00 0.60401737E+04</pdfrwt>
<totfact> 0.30409003E-03</totfact>
</mgrwt>
</event>
<event>
 8      1 +1.2359593e-08 4.99150600e+03 7.81860800e-03 7.82981900e-02
       -2 -1    0    0    0  501 -0.0000000000e+00 +0.0000000000e+00 +1.6194025165e+03 1.6194025165e+03 2.5500000000e-03 0.0000e+00 -1.0000e+00
        2 -1    0    0  501    0 +0.0000000000e+00 -0.0000000000e+00 -3.8463458464e+03 3.8463458464e+03 2.5500000000e-03 0.0000e+00 1.0000e+00
  1000011  2    1    2    0    0 -4.6275256143e+02 -1.6432042200e+02 -6.0502210597e+01 2.3038561049e+03 2.2501002867e+03 1.2798e+02 0.0000e+00
 -1000011  2    1    2    0    0 +4.6275256143e+02 +1.6432042200e+02 -2.1664411193e+03 3.1618922579e+03 2.2501009740e+03 1.5991e+03 0.0000e+00
       11  1    3    3    0    0 +4.6914004766e-02 +4.0972407709e-02 +5.6527403995e-02 8.4114624745e-02 5.1100000000e-04 0.0000e+00 1.0000e+00
  1000022  1    3    3    0    0 -4.6279947544e+02 -1.6436139441e+02 -6.0558738001e+01 2.3037719903e+03 2.2500000000e+03 0.0000e+00 0.0000e+00
      -11  1    4    4    0    0 +1.0447403221e-02 -2.0800790780e-02 +3.9103454755e-02 4.5510019939e-02 5.1100000000e-04 0.0000e+00 -1.0000e+00
  1000022  1    4    4    0    0 +4.6274211403e+02 +1.6434122279e+02 -2.1664802228e+03 3.1618467479e+03 2.2500000000e+03 0.0000e+00 0.0000e+00
<mgrwt>
<rscale>  0 0.49915056E+04</rscale>
<asrwt>0</asrwt>
<pdfrwt beam="1">  1        2 0.59174551E+00 0.49915056E+04</pdfrwt>
<pdfrwt beam="2">  1       -2 0.24913885E+00 0.49915056E+04</pdfrwt>
<totfact> 0.21368266E-02</totfact>
</mgrwt>
</event>
<event>
 8      1 +1.2359593e-08 4.95721100e+03 7.81860800e-03 7.83514200e-02
        2 -1    0    0  501    0 +0.0000000000e+00 +0.0000000000e+00 +2.2106747143e+03 2.2106747143e+03 2.5500000000e-03 0.0000e+00 1.0000e+00
       -2 -1    0    0    0  501 -0.0000000000e+00 -0.0000000000e+00 -2.7790091139e+03 2.7790091139e+03 2.5500000000e-03 0.0000e+00 -1.0000e+00
  1000011  2    1    2    0    0 +6.7399946459e+01 -1.9823387981e+02 +7.4065669664e+02 2.3781094970e+03 2.2501095559e+03 1.8412e+03 0.0000e+00
 -1000011  2    1    2    0    0 -6.7399946459e+01 +1.9823387981e+02 -1.3089910963e+03 2.6115743312e+03 2.2501163021e+03 2.7031e+03 0.0000e+00
       11  1    3    3    0    0 +5.4345073170e-03 -9.5801517671e-02 +1.1018988462e-01 1.4611480393e-01 5.1100000000e-04 0.0000e+00 1.0000e+00
  1000022  1    3    3    0    0 +6.7394511951e+01 -1.9813807829e+02 +7.4054650676e+02 2.3779633822e+03 2.2500000000e+03 0.0000e+00 0.0000e+00
      -11  1    4    4    0    0 +1.5977132026e-03 +8.8026336237e-02 -1.7156335643e-01 1.9283525289e-01 5.1100000000e-04 0.0000e+00 -1.0000e+00
  1000022  1    4    4    0    0 -6.7401544172e+01 +1.9814585347e+02 -1.3088195329e+03 2.6113814959e+03 2.2500000000e+03 0.0000e+00 0.0000e+00
<mgrwt>
<rscale>  0 0.49572110E+04</rscale>
<asrwt>0</asrwt>
<pdfrwt beam="1">  1        2 0.34010380E+00 0.49572110E+04</pdfrwt>
<pdfrwt beam="2">  1       -2 0.42753986E+00 0.49572110E+04</pdfrwt>
<totfact> 0.18213714E-02</totfact>
</mgrwt>
</event>
<event>
 8      1 +1.2359593e-08 4.69144000e+03 7.81860800e-03 7.87795200e-02
       -2 -1    0    0    0  501 -0.0000000000e+00 +0.0000000000e+00 +1.1439173052e+03 1.1439173052e+03 2.5500000000e-03 0.0000e+00 -1.0000e+00
        2 -1    0    0  501    0 +0.0000000000e+00 -0.0000000000e+00 -4.8101408457e+03 4.8101408457e+03 2.5500000000e-03 0.0000e+00 1.0000e+00
  1000011  2    1    2    0    0 +4.5368117630e+02 -4.8321070576e+02 -1.8437143983e+03 2.9835484153e+03 2.2501020351e+03 5.1986e+02 0.0000e+00
 -1000011  2    1    2    0    0 -4.5368117630e+02 +4.8321070576e+02 -1.8225091422e+03 2.9705097356e+03 2.2501265120e+03 8.6240e+02 0.0000e+00
       11  1    3    3    0    0 +6.0817690743e-02 -9.9023026201e-02 -1.7642601041e-01 2.1125990939e-01 5.1100000000e-04 0.0000e+00 1.0000e+00
  1000022  1    3    3    0    0 +4.5362035861e+02 -4.8311168273e+02 -1.8435379723e+03 2.9833371554e+03 2.2500000000e+03 0.0000e+00 0.0000e+00
      -11  1    4    4    0    0 -1.2987134854e-01 +1.0717433189e-01 -1.2151578661e-01 2.0765175597e-01 5.1100000000e-04 0.0000e+00 -1.0000e+00
  1000022  1    4    4    0    0 -4.5355130496e+02 +4.8310353143e+02 -1.8223876264e+03 2.9703020838e+03 2.2500000000e+03 0.0000e+00 0.0000e+00
<mgrwt>
<rscale>  0 0.46914404E+04</rscale>
<asrwt>0</asrwt>
<pdfrwt beam="1">  1        2 0.74002166E+00 0.46914404E+04</pdfrwt>
<pdfrwt beam="2">  1       -2 0.17598728E+00 0.46914404E+04</pdfrwt>
<totfact> 0.82544724E-03</totfact>
</mgrwt>
</event>
<event>
 8      1 +1.2359593e-08 4.75926800e+03 7.81860800e-03 7.86675500e-02
       -2 -1    0    0    0  501 -0.0000000000e+00 +0.0000000000e+00 +2.4698861025e+03 2.4698861025e+03 2.5500000000e-03 0.0000e+00 -1.0000e+00
        2 -1    0    0  501    0 +0.0000000000e+00 -0.0000000000e+00 -2.2926795193e+03 2.2926795193e+03 2.5500000000e-03 0.0000e+00 1.0000e+00
  1000011  2    1    2    0    0 +7.4428546993e+02 -1.0958487100e+02 +2.7240442021e+02 2.3881210027e+03 2.2500995646e+03 1.2054e+03 0.0000e+00
 -1000011  2    1    2    0    0 -7.4428546993e+02 +1.0958487100e+02 -9.5197837028e+01 2.3744446191e+03 2.2501010902e+03 1.0898e+03 0.0000e+00
       11  1    3    3    0    0 +1.0220716443e-01 +2.2713312489e-02 -5.5134069380e-02 1.1833099960e-01 5.1100000000e-04 0.0000e+00 1.0000e+00
  1000022  1    3    3    0    0 +7.4418326276e+02 -1.0960758431e+02 +2.7245955428e+02 2.3880026717e+03 2.2500000000e+03 0.0000e+00 0.0000e+00
      -11  1    4    4    0    0 -1.3398111009e-01 +3.6951628419e-02 -1.8806770067e-02 1.4025090396e-01 5.1100000000e-04 0.0000e+00 -1.0000e+00
  1000022  1    4    4    0    0 -7.4415148882e+02 +1.0954791937e+02 -9.5179030258e+01 2.3743043682e+03 2.2500000000e+03 0.0000e+00 0.0000e+00
<mgrwt>
<rscale>  0 0.47592677E+04</rscale>
<asrwt>0</asrwt>
<pdfrwt beam="1">  1        2 0.35271992E+00 0.47592677E+04</pdfrwt>
<pdfrwt beam="2">  1       -2 0.37998248E+00 0.47592677E+04</pdfrwt>
<totfact> 0.34023098E-02</totfact>
</mgrwt>
</event>
<event>
 8      1 +1.2359593e-08 4.84677000e+03 7.81860800e-03 7.85258900e-02
        2 -1    0    0  501    0 +0.0000000000e+00 +0.0000000000e+00 +4.1458431412e+03 4.1458431412e+03 2.5500000000e-03 0.0000e+00 1.0000e+00
       -2 -1    0    0    0  501 -0.0000000000e+00 -0.0000000000e+00 -1.4165502041e+03 1.4165502041e+03 2.5500000000e-03 0.0000e+00 -1.0000e+00
  1000011  2    1    2    0    0 -1.5832154927e+02 +8.5459616004e+02 +1.6323715522e+03 2.9125629722e+03 2.2501079691e+03 1.3838e+02 0.0000e+00
 -1000011  2    1    2    0    0 +1.5832154927e+02 -8.5459616004e+02 +1.0969213849e+03 2.6498303732e+03 2.2501031470e+03 2.3017e+02 0.0000e+00
       11  1    3    3    0    0 +5.0801711265e-02 -5.6443106090e-02 +3.4410157804e-02 8.3372403900e-02 5.1100000000e-04 0.0000e+00 1.0000e+00
  1000022  1    3    3    0    0 -1.5837235098e+02 +8.5465260315e+02 +1.6323371421e+03 2.9124795998e+03 2.2500000000e+03 0.0000e+00 0.0000e+00
      -11  1    4    4    0    0 +6.7722878726e-02 -1.2726013196e-01 +4.2696828106e-02 1.5034895823e-01 5.1100000000e-04 0.0000e+00 -1.0000e+00
  1000022  1    4    4    0    0 +1.5825382639e+02 -8.5446889991e+02 +1.0968786881e+03 2.6496800242e+03 2.2500000000e+03 0.0000e+00 0.0000e+00
<mgrwt>
<rscale>  0 0.48467700E+04</rscale>
<asrwt>0</asrwt>
<pdfrwt beam="1">  1        2 0.63782202E+00 0.48467700E+04</pdfrwt>
<pdfrwt beam="2">  1       -2 0.21793080E+00 0.48467700E+04</pdfrwt>
<totfact> 0.19322606E-02</totfact>
</mgrwt>
</event>
<event>
 8      1 +1.2359593e-08 5.68164200e+03 7.81860800e-03 7.73117800e-02
        1 -1    0    0  501    0 +0.0000000000e+00 +0.0000000000e+00 +3.2979188739e+03 3.2979188739e+03 5.0400000000e-03 0.0000e+00 1.0000e+00
       -1 -1    0    0    0  501 -0.0000000000e+00 -0.0000000000e+00 -2.4470776446e+03 2.4470776447e+03 5.0400000000e-03 0.0000e+00 -1.0000e+00
  1000011  2    1    2    0    0 -9.1338173657e+02 +1.1589412806e+03 -4.9572381409e+02 2.7360747512e+03 2.2501004102e+03 2.7329e+02 0.0000e+00
 -1000011  2    1    2    0    0 +9.1338173657e+02 -1.1589412806e+03 +1.3465650434e+03 3.0089217674e+03 2.2501025971e+03 1.0381e+03 0.0000e+00
       11  1    3    3    0    0 +5.5791965019e-02 -6.8521369302e-03 +1.5335631726e-02 5.8267806777e-02 5.1100000000e-04 0.0000e+00 1.0000e+00
  1000022  1    3    3    0    0 -9.1343752854e+02 +1.1589481327e+03 -4.9573914972e+02 2.7360164834e+03 2.2500000000e+03 0.0000e+00 0.0000e+00
      -11  1    4    4    0    0 +3.2811409834e-02 -4.1884919175e-02 -5.6430553767e-02 7.7560321206e-02 5.1100000000e-04 0.0000e+00 -1.0000e+00
  1000022  1    4    4    0    0 +9.1334892516e+02 -1.1588993956e+03 +1.3466214739e+03 3.0088442070e+03 2.2500000000e+03 0.0000e+00 0.0000e+00
<mgrwt>
<rscale>  0 0.56816419E+04</rscale>
<asrwt>0</asrwt>
<pdfrwt beam="1">  1        1 0.50737213E+00 0.56816419E+04</pdfrwt>
<pdfrwt beam="2">  1       -1 0.37647348E+00 0.56816419E+04</pdfrwt>
<totfact> 0.25348958E-03</totfact>
</mgrwt>
</event>
<event>
 8      1 +1.2359593e-08 4.60518200e+03 7.81860800e-03 7.89247700e-02
        2 -1    0    0  501    0 +0.0000000000e+00 +0.0000000000e+00 +3.3162907150e+03 3.3162907150e+03 2.5500000000e-03 0.0000e+00 1.0000e+00
       -2 -1    0    0    0  501 -0.0000000000e+00 -0.0000000000e+00 -1.5987513675e+03 1.5987513675e+03 2.5500000000e-03 0.0000e+00 -1.0000e+00
  1000011  2    1    2    0    0 +3.8253374924e+02 -2.6154301224e+02 +6.9259602361e+02 2.3994523312e+03 2.2500989803e+03 2.9822e+03 0.0000e+00
 -1000011  2    1    2    0    0 -3.8253374924e+02 +2.6154301224e+02 +1.0249433239e+03 2.5155897512e+03 2.2500991451e+03 3.3772e+02 0.0000e+00
       11  1    3    3    0    0 -3.2816586856e-02 -7.0627416287e-03 -6.1960074062e-02 7.0470719399e-02 5.1100000000e-04 0.0000e+00 1.0000e+00
  1000022  1    3    3    0    0 +3.8256656583e+02 -2.6153594950e+02 +6.9265798368e+02 2.3993818605e+03 2.2500000000e+03 0.0000e+00 0.0000e+00
      -11  1    4    4    0    0 -1.0818443116e-01 +5.1382889852e-03 +9.6193528952e-02 1.4485761661e-01 5.1100000000e-04 0.0000e+00 -1.0000e+00
  1000022  1    4    4    0    0 -3.8242556481e+02 +2.6153787395e+02 +1.0248471304e+03 2.5154448936e+03 2.2500000000e+03 0.0000e+00 0.0000e+00
<mgrwt>
<rscale>  0 0.46051816E+04</rscale>
<asrwt>0</asrwt>
<pdfrwt beam="1">  1        2 0.51019857E+00 0.46051816E+04</pdfrwt>
<pdfrwt beam="2">  1       -2 0.24596175E+00 0.46051816E+04</pdfrwt>
<totfact> 0.55464432E-02</totfact>
</mgrwt>
</event>
<event>
 8      1 +1.2359593e-08 4.72951700e+03 7.81860800e-03 7.87164300e-02
       -2 -1    0    0    0  501 -0.0000000000e+00 +0.0000000000e+00 +1.6286131271e+03 1.6286131271e+03 2.5500000000e-03 0.0000e+00 -1.0000e+00
        2 -1    0    0  501    0 +0.0000000000e+00 -0.0000000000e+00 -3.4336472454e+03 3.4336472454e+03 2.5500000000e-03 0.0000e+00 1.0000e+00
  1000011  2    1    2    0    0 +5.4727115750e+02 -2.5840036732e+02 -1.3344706213e+03 2.6851495143e+03 2.2500976880e+03 4.0308e+02 0.0000e+00
 -1000011  2    1    2    0    0 -5.4727115750e+02 +2.5840036732e+02 -4.7056349701e+02 2.3771108582e+03 2.2500998995e+03 1.3373e+02 0.0000e+00
       11  1    3    3    0    0 +8.6001616934e-02 -7.7029679330e-02 -2.1360029838e-02 1.1741533632e-01 5.1100000000e-04 0.0000e+00 1.0000e+00
  1000022  1    3    3    0    0 +5.4718515589e+02 -2.5832333764e+02 -1.3344492613e+03 2.6850320990e+03 2.2500000000e+03 0.0000e+00 0.0000e+00
      -11  1    4    4    0    0 -4.8664977905e-02 -6.5985109450e-02 -7.9746828160e-02 1.1437714850e-01 5.1100000000e-04 0.0000e+00 -1.0000e+00
  1000022  1    4    4    0    0 -5.4722249253e+02 +2.5846635243e+02 -4.7048375018e+02 2.3769964810e+03 2.2500000000e+03 0.0000e+00 0.0000e+00
<mgrwt>
<rscale>  0 0.47295171E+04</rscale>
<asrwt>0</asrwt>
<pdfrwt beam="1">  1        2 0.52825342E+00 0.47295171E+04</pdfrwt>
<pdfrwt beam="2">  1       -2 0.25055587E+00 0.47295171E+04</pdfrwt>
<totfact> 0.42799554E-02</totfact>
</mgrwt>
</event>
<event>
 8      1 +1.2359593e-08 4.63190800e+03 7.81860800e-03 7.88794200e-02
        2 -1    0    0  501    0 +0.0000000000e+00 +0.0000000000e+00 +2.5381790135e+03 2.5381790135e+03 2.5500000000e-03 0.0000e+00 1.0000e+00
       -2 -1    0    0    0  501 -0.0000000000e+00 -0.0000000000e+00 -2.1131856028e+03 2.1131856028e+03 2.5500000000e-03 0.0000e+00 -1.0000e+00
  1000011  2    1    2    0    0 -4.5691054500e+02 -1.9604949749e+02 +4.4472246358e+02 2.3469014216e+03 2.2501034557e+03 7.5559e+02 0.0000e+00
 -1000011  2    1    2    0    0 +4.5691054500e+02 +1.9604949749e+02 -1.9729052896e+01 2.3044631947e+03 2.2501019374e+03 8.9604e+02 0.0000e+00
       11  1    3    3    0    0 +4.6076929376e-02 +7.2214495107e-02 +1.2944495239e-02 8.6636235983e-02 5.1100000000e-04 0.0000e+00 1.0000e+00
  1000022  1    3    3    0    0 -4.5695662193e+02 -1.9612171199e+02 +4.4470951909e+02 2.3468147853e+03 2.2500000000e+03 0.0000e+00 0.0000e+00
      -11  1    4    4    0    0 +6.0062308937e-04 -8.8357523131e-02 -2.6892931325e-02 9.2362887937e-02 5.1100000000e-04 0.0000e+00 -1.0000e+00
  1000022  1    4    4    0    0 +4.5690994437e+02 +1.9613785502e+02 -1.9702159965e+01 2.3043708318e+03 2.2500000000e+03 0.0000e+00 0.0000e+00
<mgrwt>
<rscale>  0 0.46319082E+04</rscale>
<asrwt>0</asrwt>
<pdfrwt beam="1">  1        2 0.39048908E+00 0.46319082E+04</pdfrwt>
<pdfrwt beam="2">  1       -2 0.32510548E+00 0.46319082E+04</pdfrwt>
<totfact> 0.55205669E-02</totfact>
</mgrwt>
</event>
<event>
 8      1 +1.2359593e-08 5.42825300e+03 7.81860800e-03 7.76563900e-02
       -2 -1    0    0    0  501 -0.0000000000e+00 +0.0000000000e+00 +1.7316051285e+03 1.7316051285e+03 2.5500000000e-03 0.0000e+00 -1.0000e+00
        2 -1    0    0  501    0 +0.0000000000e+00 -0.0000000000e+00 -4.2541346146e+03 4.2541346146e+03 2.5500000000e-03 0.0000e+00 1.0000e+00
  1000011  2    1    2    0    0 +6.7628717949e+02 +9.1782038428e+02 -2.3660183876e+03 3.4584315679e+03 2.2500993961e+03 1.7038e+02 0.0000e+00
 -1000011  2    1    2    0    0 -6.7628717949e+02 -9.1782038428e+02 -1.5651109846e+02 2.5273081752e+03 2.2501182817e+03 1.3874e+03 0.0000e+00
       11  1    3    3    0    0 +1.0048613112e-01 -2.9227205352e-02 -1.0964601820e-01 1.5157243222e-01 5.1100000000e-04 0.0000e+00 1.0000e+00
  1000022  1    3    3    0    0 +6.7618669336e+02 +9.1784961148e+02 -2.3659087416e+03 3.4582799955e+03 2.2500000000e+03 0.0000e+00 0.0000e+00
      -11  1    4    4    0    0 +6.1549803989e-02 -5.9731116093e-03 +6.1475002958e-02 8.7198010099e-02 5.1100000000e-04 0.0000e+00 -1.0000e+00
  1000022  1    4    4    0    0 -6.7634872929e+02 -9.1781441117e+02 -1.5657257346e+02 2.5272209772e+03 2.2500000000e+03 0.0000e+00 0.0000e+00
<mgrwt>
<rscale>  0 0.54282525E+04</rscale>
<asrwt>0</asrwt>
<pdfrwt beam="1">  1        2 0.65448225E+00 0.54282525E+04</pdfrwt>
<pdfrwt beam="2">  1       -2 0.26640079E+00 0.54282525E+04</pdfrwt>
<totfact> 0.74238330E-03</totfact>
</mgrwt>
</event>
<event>
 8      1 +1.2359593e-08 5.99902600e+03 7.81860800e-03 7.69052300e-02
       -2 -1    0    0    0  501 -0.0000000000e+00 +0.0000000000e+00 +4.2238102134e+03 4.2238102134e+03 2.5500000000e-03 0.0000e+00 -1.0000e+00
        2 -1    0    0  501    0 +0.0000000000e+00 -0.0000000000e+00 -2.1300860829e+03 2.1300860829e+03 2.5500000000e-03 0.0000e+00 1.0000e+00
  1000011  2    1    2    0    0 +4.4768855086e+02 -1.8333654106e+03 +4.0044536272e+02 2.9639430256e+03 2.2500995540e+03 1.1017e+03 0.0000e+00
 -1000011  2    1    2    0    0 -4.4768855086e+02 +1.8333654106e+03 +1.6932787678e+03 3.3899532708e+03 2.2500969813e+03 3.0980e+03 0.0000e+00
       11  1    3    3    0    0 +6.6066486827e-02 -4.1678695088e-03 -4.7829536342e-02 8.1670541966e-02 5.1100000000e-04 0.0000e+00 1.0000e+00
  1000022  1    3    3    0    0 +4.4762248438e+02 -1.8333612427e+03 +4.0049319226e+02 2.9638613550e+03 2.2500000000e+03 0.0000e+00 0.0000e+00
      -11  1    4    4    0    0 -2.1115954838e-02 +1.5636150471e-01 +1.8872022092e-01 2.4598859012e-01 5.1100000000e-04 0.0000e+00 -1.0000e+00
  1000022  1    4    4    0    0 -4.4766743491e+02 +1.8332090491e+03 +1.6930900476e+03 3.3897072822e+03 2.2500000000e+03 0.0000e+00 0.0000e+00
<mgrwt>
<rscale>  0 0.59990264E+04</rscale>
<asrwt>0</asrwt>
<pdfrwt beam="1">  1        2 0.32770555E+00 0.59990264E+04</pdfrwt>
<pdfrwt beam="2">  1       -2 0.64981696E+00 0.59990264E+04</pdfrwt>
<totfact> 0.13073232E-03</totfact>
</mgrwt>
</event>
<event>
 8      1 +1.2359593e-08 4.72283600e+03 7.81860800e-03 7.87274500e-02
       -2 -1    0    0    0  501 -0.0000000000e+00 +0.0000000000e+00 +2.9280267744e+03 2.9280267744e+03 2.5500000000e-03 0.0000e+00 -1.0000e+00
        2 -1    0    0  501    0 +0.0000000000e+00 -0.0000000000e+00 -1.9044551543e+03 1.9044551543e+03 2.5500000000e-03 0.0000e+00 1.0000e+00
  1000011  2    1    2    0    0 -2.4937799867e+02 +3.0269422479e+02 -1.0174522817e+02 2.2862892852e+03 2.2501007587e+03 5.9868e+02 0.0000e+00
 -1000011  2    1    2    0    0 +2.4937799867e+02 -3.0269422479e+02 +1.1253168483e+03 2.5461926435e+03 2.2500990620e+03 1.2825e+03 0.0000e+00
       11  1    3    3    0    0 +2.5944505385e-02 -1.5720339293e-02 -9.3623598495e-02 9.8416895477e-02 5.1100000000e-04 0.0000e+00 1.0000e+00
  1000022  1    3    3    0    0 -2.4940394317e+02 +3.0270994513e+02 -1.0165160457e+02 2.2861908683e+03 2.2500000000e+03 0.0000e+00 0.0000e+00
      -11  1    4    4    0    0 -3.3552602970e-02 -7.8111819728e-02 -1.5938621681e-02 8.6495859763e-02 5.1100000000e-04 0.0000e+00 -1.0000e+00
  1000022  1    4    4    0    0 +2.4941155127e+02 -3.0261611297e+02 +1.1253327869e+03 2.5461061477e+03 2.2500000000e+03 0.0000e+00 0.0000e+00
<mgrwt>
<rscale>  0 0.47228363E+04</rscale>
<asrwt>0</asrwt>
<pdfrwt beam="1">  1        2 0.29299310E+00 0.47228363E+04</pdfrwt>
<pdfrwt beam="2">  1       -2 0.45046566E+00 0.47228363E+04</pdfrwt>
<totfact> 0.19403731E-02</totfact>
</mgrwt>
</event>
<event>
 8      1 +1.2359593e-08 5.71386900e+03 7.81860800e-03 7.72692700e-02
        2 -1    0    0  501    0 +0.0000000000e+00 +0.0000000000e+00 +3.3524170718e+03 3.3524170718e+03 2.5500000000e-03 0.0000e+00 1.0000e+00
       -2 -1    0    0    0  501 -0.0000000000e+00 -0.0000000000e+00 -2.4346833188e+03 2.4346833188e+03 2.5500000000e-03 0.0000e+00 -1.0000e+00
  1000011  2    1    2    0    0 -8.5083632114e+02 +1.5342912937e+03 +6.0614468310e+02 2.9169076940e+03 2.2501037530e+03 5.6236e+01 0.0000e+00
 -1000011  2    1    2    0    0 +8.5083632114e+02 -1.5342912937e+03 +3.1158906993e+02 2.8701926966e+03 2.2500991418e+03 3.1793e+02 0.0000e+00
       11  1    3    3    0    0 -1.4784995340e-01 +1.1537359208e-01 +5.2611594616e-02 1.9477914507e-01 5.1100000000e-04 0.0000e+00 1.0000e+00
  1000022  1    3    3    0    0 -8.5068847119e+02 +1.5341759201e+03 +6.0609207151e+02 2.9167129149e+03 2.2500000000e+03 0.0000e+00 0.0000e+00
      -11  1    4    4    0    0 -4.5931494370e-02 -7.2268718585e-02 -4.6920058043e-02 9.7643344122e-02 5.1100000000e-04 0.0000e+00 -1.0000e+00
  1000022  1    4    4    0    0 +8.5088225263e+02 -1.5342190250e+03 +3.1163598999e+02 2.8700950532e+03 2.2500000000e+03 0.0000e+00 0.0000e+00
<mgrwt>
<rscale>  0 0.57138687E+04</rscale>
<asrwt>0</asrwt>
<pdfrwt beam="1">  1        2 0.51575647E+00 0.57138687E+04</pdfrwt>
<pdfrwt beam="2">  1       -2 0.37456667E+00 0.57138687E+04</pdfrwt>
<totfact> 0.76627252E-03</totfact>
</mgrwt>
</event>
<event>
 8      1 +1.2359593e-08 4.55403300e+03 7.81860800e-03 7.90124500e-02
       -2 -1    0    0    0  501 -0.0000000000e+00 +0.0000000000e+00 +1.2070631374e+03 1.2070631374e+03 2.5500000000e-03 0.0000e+00 1.0000e+00
        2 -1    0    0  501    0 +0.0000000000e+00 -0.0000000000e+00 -4.2953885911e+03 4.2953885911e+03 2.5500000000e-03 0.0000e+00 -1.0000e+00
  1000011  2    1    2    0    0 -4.1069586577e+01 -4.2259926953e+01 -1.1284356142e+03 2.5178934327e+03 2.2500995068e+03 8.0877e+02 0.0000e+00
 -1000011  2    1    2    0    0 +4.1069586577e+01 +4.2259926953e+01 -1.9598898395e+03 2.9845582958e+03 2.2500994258e+03 3.8506e+01 0.0000e+00
       11  1    3    3    0    0 +7.6163745538e-02 +5.9552145376e-02 -5.6840612375e-02 1.1215386638e-01 5.1100000000e-04 0.0000e+00 1.0000e+00
  1000022  1    3    3    0    0 -4.1145750322e+01 -4.2319479098e+01 -1.1283787736e+03 2.5177812788e+03 2.2500000000e+03 0.0000e+00 0.0000e+00
      -11  1    4    4    0    0 -5.0194487898e-02 +1.8044031241e-02 -1.9632875849e-01 2.0344610113e-01 5.1100000000e-04 0.0000e+00 -1.0000e+00
  1000022  1    4    4    0    0 +4.1119781065e+01 +4.2241882922e+01 -1.9596935107e+03 2.9843548497e+03 2.2500000000e+03 0.0000e+00 0.0000e+00
<mgrwt>
<rscale>  0 0.45540335E+04</rscale>
<asrwt>0</asrwt>
<pdfrwt beam="1">  1        2 0.66082901E+00 0.45540335E+04</pdfrwt>
<pdfrwt beam="2">  1       -2 0.18570202E+00 0.45540335E+04</pdfrwt>
<totfact> 0.23783337E-02</totfact>
</mgrwt>
</event>
<event>
 8      1 +1.2359593e-08 5.40399900e+03 7.81860800e-03 7.76903900e-02
       -2 -1    0    0    0  501 -0.0000000000e+00 +0.0000000000e+00 +2.3804452647e+03 2.3804452647e+03 2.5500000000e-03 0.0000e+00 -1.0000e+00
        2 -1    0    0  501    0 +0.0000000000e+00 -0.0000000000e+00 -3.0669899111e+03 3.0669899111e+03 2.5500000000e-03 0.0000e+00 1.0000e+00
  1000011  2    1    2    0    0 -1.0185267046e+03 -3.1080729408e+02 +7.1582679293e+02 2.5902346052e+03 2.2500909960e+03 5.0624e+02 0.0000e+00
 -1000011  2    1    2    0    0 +1.0185267046e+03 +3.1080729408e+02 -1.4023714392e+03 2.8572005706e+03 2.2501003589e+03 6.8321e+01 0.0000e+00
       11  1    3    3    0    0 +5.2627273323e-02 -1.6309788546e-02 -1.3204097118e-02 5.6659052831e-02 5.1100000000e-04 0.0000e+00 1.0000e+00
  1000022  1    3    3    0    0 -1.0185793319e+03 -3.1079098429e+02 +7.1583999702e+02 2.5901779461e+03 2.2500000000e+03 0.0000e+00 0.0000e+00
      -11  1    4    4    0    0 +1.3283877900e-01 +2.4585967538e-02 -1.3708192037e-02 1.3578949287e-01 5.1100000000e-04 0.0000e+00 -1.0000e+00
  1000022  1    4    4    0    0 +1.0183938659e+03 +3.1078270811e+02 -1.4023577311e+03 2.8570647811e+03 2.2500000000e+03 0.0000e+00 0.0000e+00
<mgrwt>
<rscale>  0 0.54039991E+04</rscale>
<asrwt>0</asrwt>
<pdfrwt beam="1">  1        2 0.47184460E+00 0.54039991E+04</pdfrwt>
<pdfrwt beam="2">  1       -2 0.36622235E+00 0.54039991E+04</pdfrwt>
<totfact> 0.13666424E-02</totfact>
</mgrwt>
</event>
<event>
 8      1 +1.2359593e-08 6.39305200e+03 7.81860800e-03 7.64349100e-02
       -2 -1    0    0    0  501 -0.0000000000e+00 +0.0000000000e+00 +4.6822148057e+03 4.6822148057e+03 2.5500000000e-03 0.0000e+00 -1.0000e+00
        2 -1    0    0  501    0 +0.0000000000e+00 -0.0000000000e+00 -2.1822533223e+03 2.1822533223e+03 2.5500000000e-03 0.0000e+00 1.0000e+00
  1000011  2    1    2    0    0 +2.2020150742e+03 +1.2032490132e+02 +1.8296858221e+03 3.6433561508e+03 2.2500989679e+03 1.0343e+03 0.0000e+00
 -1000011  2    1    2    0    0 -2.2020150742e+03 -1.2032490132e+02 +6.7027566135e+02 3.2211119771e+03 2.2500987618e+03 8.3517e+02 0.0000e+00
       11  1    3    3    0    0 +6.1444815132e-02 +3.1831469054e-02 -3.9288759214e-02 7.9577477369e-02 5.1100000000e-04 0.0000e+00 1.0000e+00
  1000022  1    3    3    0    0 +2.2019536294e+03 +1.2029306985e+02 +1.8297251108e+03 3.6432765734e+03 2.2500000000e+03 0.0000e+00 0.0000e+00
      -11  1    4    4    0    0 -1.6095529618e-01 +3.2408596566e-02 +1.1846058268e-01 2.0246010679e-01 5.1100000000e-04 0.0000e+00 -1.0000e+00
  1000022  1    4    4    0    0 -2.2018541189e+03 -1.2035730992e+02 +6.7015720076e+02 3.2209095170e+03 2.2500000000e+03 0.0000e+00 0.0000e+00
<mgrwt>
<rscale>  0 0.63930521E+04</rscale>
<asrwt>0</asrwt>
<pdfrwt beam="1">  1        2 0.33573128E+00 0.63930521E+04</pdfrwt>
<pdfrwt beam="2">  1       -2 0.72034074E+00 0.63930521E+04</pdfrwt>
<totfact> 0.67192765E-04</totfact>
</mgrwt>
</event>
<event>
 8      1 +1.2359593e-08 4.54322400e+03 7.81860800e-03 7.90311300e-02
       -2 -1    0    0    0  501 -0.0000000000e+00 +0.0000000000e+00 +1.6610826566e+03 1.6610826566e+03 2.5500000000e-03 0.0000e+00 -1.0000e+00
        2 -1    0    0  501    0 +0.0000000000e+00 -0.0000000000e+00 -3.1065407540e+03 3.1065407540e+03 2.5500000000e-03 0.0000e+00 1.0000e+00
  1000011  2    1    2    0    0 -1.9838016581e+02 +2.4065669079e+02 -7.2516773343e+02 2.3845522896e+03 2.2501002305e+03 1.8143e+03 0.0000e+00
 -1000011  2    1    2    0    0 +1.9838016581e+02 -2.4065669079e+02 -7.2029036398e+02 2.3830711210e+03 2.2500976481e+03 9.1434e+02 0.0000e+00
       11  1    3    3    0    0 -1.4640847947e-02 +2.0193628814e-02 -1.3735771609e-01 1.3960494350e-01 5.1100000000e-04 0.0000e+00 1.0000e+00
  1000022  1    3    3    0    0 -1.9836552496e+02 +2.4063649717e+02 -7.2503037571e+02 2.3844126847e+03 2.2500000000e+03 0.0000e+00 0.0000e+00
      -11  1    4    4    0    0 +9.3383681648e-02 +3.8004724986e-02 -3.4471445447e-02 1.0655239187e-01 5.1100000000e-04 0.0000e+00 -1.0000e+00
  1000022  1    4    4    0    0 +1.9828678213e+02 -2.4069469552e+02 -7.2025589254e+02 2.3829645686e+03 2.2500000000e+03 0.0000e+00 0.0000e+00
<mgrwt>
<rscale>  0 0.45432240E+04</rscale>
<asrwt>0</asrwt>
<pdfrwt beam="1">  1        2 0.47792935E+00 0.45432240E+04</pdfrwt>
<pdfrwt beam="2">  1       -2 0.25555118E+00 0.45432240E+04</pdfrwt>
<totfact> 0.66804666E-02</totfact>
</mgrwt>
</event>
<event>
 8      1 +1.2359593e-08 5.46863200e+03 7.81860800e-03 7.76002000e-02
        2 -1    0    0  501    0 +0.0000000000e+00 +0.0000000000e+00 +3.6887514550e+03 3.6887514550e+03 2.5500000000e-03 0.0000e+00 1.0000e+00
       -2 -1    0    0    0  501 -0.0000000000e+00 -0.0000000000e+00 -2.0268331355e+03 2.0268331355e+03 2.5500000000e-03 0.0000e+00 -1.0000e+00
  1000011  2    1    2    0    0 -7.2383492441e+02 +8.4530595899e+01 -6.0302396781e+02 2.4408350734e+03 2.2501012267e+03 1.2604e+03 0.0000e+00
 -1000011  2    1    2    0    0 +7.2383492441e+02 -8.4530595899e+01 +2.2649422874e+03 3.2747495170e+03 2.2500974234e+03 1.3147e+03 0.0000e+00
       11  1    3    3    0    0 -1.1114553637e-01 +6.7937503245e-02 -7.5028920691e-03 1.3048137339e-01 5.1100000000e-04 0.0000e+00 1.0000e+00
  1000022  1    3    3    0    0 -7.2372377887e+02 +8.4462658395e+01 -6.0301646492e+02 2.4407045921e+03 2.2500000000e+03 0.0000e+00 0.0000e+00
      -11  1    4    4    0    0 -3.9352608669e-04 -8.6831182032e-02 +3.6027062540e-02 9.4010738404e-02 5.1100000000e-04 0.0000e+00 -1.0000e+00
  1000022  1    4    4    0    0 +7.2383531793e+02 -8.4443764717e+01 +2.2649062603e+03 3.2746555063e+03 2.2500000000e+03 0.0000e+00 0.0000e+00
<mgrwt>
<rscale>  0 0.54686319E+04</rscale>
<asrwt>0</asrwt>
<pdfrwt beam="1">  1        2 0.56750022E+00 0.54686319E+04</pdfrwt>
<pdfrwt beam="2">  1       -2 0.31182048E+00 0.54686319E+04</pdfrwt>
<totfact> 0.11191054E-02</totfact>
</mgrwt>
</event>
<event>
 8      1 +1.2359593e-08 4.65419800e+03 7.81860800e-03 7.88418400e-02
       -2 -1    0    0    0  501 -0.0000000000e+00 +0.0000000000e+00 +1.2261382973e+03 1.2261382973e+03 2.5500000000e-03 0.0000e+00 -1.0000e+00
        2 -1    0    0  501    0 +0.0000000000e+00 -0.0000000000e+00 -4.4166226433e+03 4.4166226433e+03 2.5500000000e-03 0.0000e+00 1.0000e+00
  1000011  2    1    2    0    0 +3.2618252517e+02 -3.7905368134e+02 -1.2073403538e+03 2.6020557089e+03 2.2500992088e+03 2.2784e+02 0.0000e+00
 -1000011  2    1    2    0    0 -3.2618252517e+02 +3.7905368134e+02 -1.9831439922e+03 3.0407052317e+03 2.2501003265e+03 3.0271e+01 0.0000e+00
       11  1    3    3    0    0 +3.5439384527e-02 +7.6279397083e-03 -1.5863469702e-01 1.6272480868e-01 5.1100000000e-04 0.0000e+00 1.0000e+00
  1000022  1    3    3    0    0 +3.2614708578e+02 -3.7906130928e+02 -1.2071817191e+03 2.6018929841e+03 2.2500000000e+03 0.0000e+00 0.0000e+00
      -11  1    4    4    0    0 -3.5711721876e-02 +1.1687169134e-01 -1.0466635016e-01 1.6090253324e-01 5.1100000000e-04 0.0000e+00 -1.0000e+00
  1000022  1    4    4    0    0 -3.2614681344e+02 +3.7893680965e+02 -1.9830393259e+03 3.0405443291e+03 2.2500000000e+03 0.0000e+00 0.0000e+00
<mgrwt>
<rscale>  0 0.46541982E+04</rscale>
<asrwt>0</asrwt>
<pdfrwt beam="1">  1        2 0.67948040E+00 0.46541982E+04</pdfrwt>
<pdfrwt beam="2">  1       -2 0.18863666E+00 0.46541982E+04</pdfrwt>
<totfact> 0.17397244E-02</totfact>
</mgrwt>
</event>
<event>
 8      1 +1.2359593e-08 6.89929500e+03 7.81860800e-03 7.58791100e-02
        2 -1    0    0  501    0 +0.0000000000e+00 +0.0000000000e+00 +4.9475132680e+03 4.9475132680e+03 2.5500000000e-03 0.0000e+00 1.0000e+00
       -2 -1    0    0    0  501 -0.0000000000e+00 -0.0000000000e+00 -2.4052621519e+03 2.4052621519e+03 2.5500000000e-03 0.0000e+00 -1.0000e+00
  1000011  2    1    2    0    0 -5.6035241413e+02 -2.4329151215e+03 +4.4283658210e+02 3.3900032075e+03 2.2500992628e+03 4.5329e+02 0.0000e+00
 -1000011  2    1    2    0    0 +5.6035241413e+02 +2.4329151215e+03 +2.0994145340e+03 3.9627722124e+03 2.2501003101e+03 4.9160e+02 0.0000e+00
       11  1    3    3    0    0 -1.0315402283e-01 -3.4907648314e-02 +1.6386835276e-02 1.1012758832e-01 5.1100000000e-04 0.0000e+00 1.0000e+00
  1000022  1    3    3    0    0 -5.6024926010e+02 -2.4328802138e+03 +4.4282019526e+02 3.3898930800e+03 2.2500000000e+03 0.0000e+00 0.0000e+00
      -11  1    4    4    0    0 +4.9574185187e-02 +6.0769460557e-02 -3.1577584509e-02 8.4545441178e-02 5.1100000000e-04 0.0000e+00 -1.0000e+00
  1000022  1    4    4    0    0 +5.6030283994e+02 +2.4328543520e+03 +2.0994461116e+03 3.9626876670e+03 2.2500000000e+03 0.0000e+00 0.0000e+00
<mgrwt>
<rscale>  0 0.68992946E+04</rscale>
<asrwt>0</asrwt>
<pdfrwt beam="1">  1        2 0.76115588E+00 0.68992946E+04</pdfrwt>
<pdfrwt beam="2">  1       -2 0.37004033E+00 0.68992946E+04</pdfrwt>
<totfact> 0.28449729E-04</totfact>
</mgrwt>
</event>
<event>
 8      1 +1.2359593e-08 4.88798700e+03 7.81860800e-03 7.84602200e-02
        2 -1    0    0  501    0 +0.0000000000e+00 +0.0000000000e+00 +2.6137752367e+03 2.6137752367e+03 2.5500000000e-03 0.0000e+00 1.0000e+00
       -2 -1    0    0    0  501 -0.0000000000e+00 -0.0000000000e+00 -2.2852399257e+03 2.2852399257e+03 2.5500000000e-03 0.0000e+00 -1.0000e+00
  1000011  2    1    2    0    0 -2.7246724539e+02 -8.4409289350e+02 -1.8783812250e+02 2.4258950594e+03 2.2501005458e+03 5.7406e+02 0.0000e+00
 -1000011  2    1    2    0    0 +2.7246724539e+02 +8.4409289350e+02 +5.1637343349e+02 2.4731201031e+03 2.2501000664e+03 5.0273e+02 0.0000e+00
       11  1    3    3    0    0 +8.8441739869e-02 -2.3845096454e-02 +2.5109825957e-04 9.1601605743e-02 5.1100000000e-04 0.0000e+00 1.0000e+00
  1000022  1    3    3    0    0 -2.7255568713e+02 -8.4406904840e+02 -1.8783837360e+02 2.4258034578e+03 2.2500000000e+03 0.0000e+00 0.0000e+00
      -11  1    4    4    0    0 +3.7845163731e-03 -2.0834326768e-02 -6.7076629335e-02 7.0341499334e-02 5.1100000000e-04 0.0000e+00 -1.0000e+00
  1000022  1    4    4    0    0 +2.7246346087e+02 +8.4411372783e+02 +5.1644051012e+02 2.4730497616e+03 2.2500000000e+03 0.0000e+00 0.0000e+00
<mgrwt>
<rscale>  0 0.48879867E+04</rscale>
<asrwt>0</asrwt>
<pdfrwt beam="1">  1        2 0.40211927E+00 0.48879867E+04</pdfrwt>
<pdfrwt beam="2">  1       -2 0.35157537E+00 0.48879867E+04</pdfrwt>
<totfact> 0.33363300E-02</totfact>
</mgrwt>
</event>
<event>
 8      1 +1.2359593e-08 4.62151400e+03 7.81860800e-03 7.88970200e-02
        2 -1    0    0  501    0 +0.0000000000e+00 +0.0000000000e+00 +2.7147562861e+03 2.7147562861e+03 2.5500000000e-03 0.0000e+00 -1.0000e+00
       -2 -1    0    0    0  501 -0.0000000000e+00 -0.0000000000e+00 -1.9668791982e+03 1.9668791982e+03 2.5500000000e-03 0.0000e+00 1.0000e+00
  1000011  2    1    2    0    0 -2.8409728704e+02 +3.9605485997e+02 +5.7418669135e+02 2.3728064042e+03 2.2500998099e+03 5.3087e+03 0.0000e+00
 -1000011  2    1    2    0    0 +2.8409728704e+02 -3.9605485997e+02 +1.7369039653e+02 2.3088290802e+03 2.2501005860e+03 1.6245e+02 0.0000e+00
       11  1    3    3    0    0 +3.5232236045e-02 +4.9360044319e-02 -5.8764339382e-02 8.4446628070e-02 5.1100000000e-04 0.0000e+00 1.0000e+00
  1000022  1    3    3    0    0 -2.8413251928e+02 +3.9600549992e+02 +5.7424545569e+02 2.3727219576e+03 2.2500000000e+03 0.0000e+00 0.0000e+00
      -11  1    4    4    0    0 +9.0826244090e-02 +3.2329666210e-02 +4.6820811163e-02 1.0717771865e-01 5.1100000000e-04 0.0000e+00 -1.0000e+00
  1000022  1    4    4    0    0 +2.8400646080e+02 -3.9608718963e+02 +1.7364357572e+02 2.3087219025e+03 2.2500000000e+03 0.0000e+00 0.0000e+00
<mgrwt>
<rscale>  0 0.46215139E+04</rscale>
<asrwt>0</asrwt>
<pdfrwt beam="1">  1        2 0.41765481E+00 0.46215139E+04</pdfrwt>
<pdfrwt beam="2">  1       -2 0.30259680E+00 0.46215139E+04</pdfrwt>
<totfact> 0.59817517E-02</totfact>
</mgrwt>
</event>
<event>
 8      1 +1.2359593e-08 7.20837400e+03 7.81860800e-03 7.55631900e-02
        2 -1    0    0  501    0 +0.0000000000e+00 +0.0000000000e+00 +3.5010516122e+03 3.5010516122e+03 2.5500000000e-03 0.0000e+00 1.0000e+00
       -2 -1    0    0    0  501 -0.0000000000e+00 -0.0000000000e+00 -3.7103607089e+03 3.7103607089e+03 2.5500000000e-03 0.0000e+00 -1.0000e+00
  1000011  2    1    2    0    0 -1.6324461773e+03 +1.9856356936e+03 -1.2538693428e+03 3.6390609602e+03 2.2500992676e+03 5.4222e+02 0.0000e+00
 -1000011  2    1    2    0    0 +1.6324461773e+03 -1.9856356936e+03 +1.0445602461e+03 3.5723513608e+03 2.2501018884e+03 1.7229e+03 0.0000e+00
       11  1    3    3    0    0 -8.0444146538e-02 +1.1986548330e-01 +3.8829445912e-02 1.4948906768e-01 5.1100000000e-04 0.0000e+00 1.0000e+00
  1000022  1    3    3    0    0 -1.6323657332e+03 +1.9855158281e+03 -1.2539081723e+03 3.6389114711e+03 2.2500000000e+03 0.0000e+00 0.0000e+00
      -11  1    4    4    0    0 +1.7168408420e-01 -1.6223057134e-01 +1.2843930296e-02 2.3655741456e-01 5.1100000000e-04 0.0000e+00 -1.0000e+00
  1000022  1    4    4    0    0 +1.6322744932e+03 -1.9854734630e+03 +1.0445474022e+03 3.5721148034e+03 2.2500000000e+03 0.0000e+00 0.0000e+00
<mgrwt>
<rscale>  0 0.72083741E+04</rscale>
<asrwt>0</asrwt>
<pdfrwt beam="1">  1        2 0.53862332E+00 0.72083741E+04</pdfrwt>
<pdfrwt beam="2">  1       -2 0.57082473E+00 0.72083741E+04</pdfrwt>
<totfact> 0.34565749E-04</totfact>
</mgrwt>
</event>
<event>
 8      1 +1.2359593e-08 5.52412400e+03 7.81860800e-03 7.75237800e-02
        2 -1    0    0  501    0 +0.0000000000e+00 +0.0000000000e+00 +4.1898247623e+03 4.1898247623e+03 2.5500000000e-03 0.0000e+00 1.0000e+00
       -2 -1    0    0    0  501 -0.0000000000e+00 -0.0000000000e+00 -1.8208366275e+03 1.8208366275e+03 2.5500000000e-03 0.0000e+00 -1.0000e+00
  1000011  2    1    2    0    0 +1.1767208556e+03 +4.5072571340e+02 +2.2606492463e+03 3.4294772561e+03 2.2501007965e+03 1.3193e+03 0.0000e+00
 -1000011  2    1    2    0    0 -1.1767208556e+03 -4.5072571340e+02 +1.0833888851e+02 2.5811841337e+03 2.2500996814e+03 1.2424e+03 0.0000e+00
       11  1    3    3    0    0 +3.4414989184e-02 +5.2232050315e-02 +2.2364313731e-01 2.3222638082e-01 5.1100000000e-04 0.0000e+00 1.0000e+00
  1000022  1    3    3    0    0 +1.1766864406e+03 +4.5067348135e+02 +2.2604256032e+03 3.4292450297e+03 2.2500000000e+03 0.0000e+00 0.0000e+00
      -11  1    4    4    0    0 -1.1479278868e-01 -7.5509475181e-02 +7.2730160026e-02 1.5546382851e-01 5.1100000000e-04 0.0000e+00 -1.0000e+00
  1000022  1    4    4    0    0 -1.1766060628e+03 -4.5065020393e+02 +1.0826615835e+02 2.5810286698e+03 2.2500000000e+03 0.0000e+00 0.0000e+00
<mgrwt>
<rscale>  0 0.55241240E+04</rscale>
<asrwt>0</asrwt>
<pdfrwt beam="1">  1        2 0.64458842E+00 0.55241240E+04</pdfrwt>
<pdfrwt beam="2">  1       -2 0.28012872E+00 0.55241240E+04</pdfrwt>
<totfact> 0.69195364E-03</totfact>
</mgrwt>
</event>
<event>
 8      1 +1.2359593e-08 5.30186400e+03 7.81860800e-03 7.78355700e-02
        2 -1    0    0  501    0 +0.0000000000e+00 +0.0000000000e+00 +4.8371810505e+03 4.8371810505e+03 2.5500000000e-03 0.0000e+00 1.0000e+00
       -2 -1    0    0    0  501 -0.0000000000e+00 -0.0000000000e+00 -1.4527964694e+03 1.4527964694e+03 2.5500000000e-03 0.0000e+00 -1.0000e+00
  1000011  2    1    2    0    0 -8.5090903698e+00 -8.0079208293e+02 +3.0568576103e+03 3.8792604283e+03 2.2500983659e+03 2.6295e+02 0.0000e+00
 -1000011  2    1    2    0    0 +8.5090903698e+00 +8.0079208293e+02 +3.2752697086e+02 2.4107170916e+03 2.2500983566e+03 3.8036e+02 0.0000e+00
       11  1    3    3    0    0 -3.0291146279e-02 -1.3284557282e-01 +2.0344852310e-01 2.4486131190e-01 5.1100000000e-04 0.0000e+00 1.0000e+00
  1000022  1    3    3    0    0 -8.4787992235e+00 -8.0065923736e+02 +3.0566541617e+03 3.8790155670e+03 2.2500000000e+03 0.0000e+00 0.0000e+00
      -11  1    4    4    0    0 +2.7197979229e-03 +2.9738962751e-02 -8.5043159588e-02 9.0135468914e-02 5.1100000000e-04 0.0000e+00 -1.0000e+00
  1000022  1    4    4    0    0 +8.5063705719e+00 +8.0076234397e+02 +3.2761201402e+02 2.4106269561e+03 2.2500000000e+03 0.0000e+00 0.0000e+00
<mgrwt>
<rscale>  0 0.53018637E+04</rscale>
<asrwt>0</asrwt>
<pdfrwt beam="1">  1        2 0.74418171E+00 0.53018637E+04</pdfrwt>
<pdfrwt beam="2">  1       -2 0.22350715E+00 0.53018637E+04</pdfrwt>
<totfact> 0.35477822E-03</totfact>
</mgrwt>
</event>
<event>
 8      1 +1.2359593e-08 4.76142000e+03 7.81860800e-03 7.86640300e-02
       -2 -1    0    0    0  501 -0.0000000000e+00 +0.0000000000e+00 +1.9296336254e+03 1.9296336254e+03 2.5500000000e-03 0.0000e+00 -1.0000e+00
        2 -1    0    0  501    0 +0.0000000000e+00 -0.0000000000e+00 -2.9372312691e+03 2.9372312691e+03 2.5500000000e-03 0.0000e+00 1.0000e+00
  1000011  2    1    2    0    0 -7.3669566260e+01 +6.8410668633e+02 -8.7434734449e+02 2.5101466361e+03 2.2500941520e+03 9.8483e+02 0.0000e+00
 -1000011  2    1    2    0    0 +7.3669566260e+01 -6.8410668633e+02 -1.3325029924e+02 2.3567182584e+03 2.2500969188e+03 1.3938e+02 0.0000e+00
       11  1    3    3    0    0 +8.7158414507e-02 +4.5115093015e-02 -1.4624021373e-02 9.9227433883e-02 5.1100000000e-04 0.0000e+00 1.0000e+00
  1000022  1    3    3    0    0 -7.3756724675e+01 +6.8406157124e+02 -8.7433272047e+02 2.5100474087e+03 2.2500000000e+03 0.0000e+00 0.0000e+00
      -11  1    4    4    0    0 -8.3553170065e-02 -4.1262949035e-02 -4.7469636369e-02 1.0458197827e-01 5.1100000000e-04 0.0000e+00 -1.0000e+00
  1000022  1    4    4    0    0 +7.3753119430e+01 -6.8406542338e+02 -1.3320282961e+02 2.3566136764e+03 2.2500000000e+03 0.0000e+00 0.0000e+00
<mgrwt>
<rscale>  0 0.47614200E+04</rscale>
<asrwt>0</asrwt>
<pdfrwt beam="1">  1        2 0.45188173E+00 0.47614200E+04</pdfrwt>
<pdfrwt beam="2">  1       -2 0.29686671E+00 0.47614200E+04</pdfrwt>
<totfact> 0.46941363E-02</totfact>
</mgrwt>
</event>
<event>
 8      1 +1.2359593e-08 5.72766900e+03 7.81860800e-03 7.72511600e-02
        2 -1    0    0  501    0 +0.0000000000e+00 +0.0000000000e+00 +2.9030900396e+03 2.9030900396e+03 2.5500000000e-03 0.0000e+00 1.0000e+00
       -2 -1    0    0    0  501 -0.0000000000e+00 -0.0000000000e+00 -2.8251097371e+03 2.8251097371e+03 2.5500000000e-03 0.0000e+00 -1.0000e+00
  1000011  2    1    2    0    0 -8.0027034890e+02 +1.5699767010e+03 +2.2168294409e+02 2.8665923905e+03 2.2500998050e+03 2.0857e+02 0.0000e+00
 -1000011  2    1    2    0    0 +8.0027034890e+02 -1.5699767010e+03 -1.4370264162e+02 2.8616073863e+03 2.2500859786e+03 4.6679e+02 0.0000e+00
       11  1    3    3    0    0 -9.4169272591e-02 -1.6814016624e-02 +1.0413410523e-02 9.6225064675e-02 5.1100000000e-04 0.0000e+00 1.0000e+00
  1000022  1    3    3    0    0 -8.0017617962e+02 +1.5699935150e+03 +2.2167253068e+02 2.8664961654e+03 2.2500000000e+03 0.0000e+00 0.0000e+00
      -11  1    4    4    0    0 -4.5922486313e-02 -7.8608469252e-02 -4.1277725723e-02 9.9961380890e-02 5.1100000000e-04 0.0000e+00 -1.0000e+00
  1000022  1    4    4    0    0 +8.0031627138e+02 -1.5698980925e+03 -1.4366136390e+02 2.8615074249e+03 2.2500000000e+03 0.0000e+00 0.0000e+00
<mgrwt>
<rscale>  0 0.57276690E+04</rscale>
<asrwt>0</asrwt>
<pdfrwt beam="1">  1        2 0.44662924E+00 0.57276690E+04</pdfrwt>
<pdfrwt beam="2">  1       -2 0.43463226E+00 0.57276690E+04</pdfrwt>
<totfact> 0.60491920E-03</totfact>
</mgrwt>
</event>
<event>
 8      1 +1.2359593e-08 5.34023000e+03 7.81860800e-03 7.77806400e-02
       -2 -1    0    0    0  501 -0.0000000000e+00 +0.0000000000e+00 +1.5934166527e+03 1.5934166527e+03 2.5500000000e-03 0.0000e+00 -1.0000e+00
        2 -1    0    0  501    0 +0.0000000000e+00 -0.0000000000e+00 -4.4743565900e+03 4.4743565900e+03 2.5500000000e-03 0.0000e+00 1.0000e+00
  1000011  2    1    2    0    0 -1.0905755866e+03 +9.3528274908e+02 -1.4967709990e+03 3.0606179769e+03 2.2501000082e+03 4.5840e+02 0.0000e+00
 -1000011  2    1    2    0    0 +1.0905755866e+03 -9.3528274908e+02 -1.3841689383e+03 3.0071552658e+03 2.2501000449e+03 4.6786e+02 0.0000e+00
       11  1    3    3    0    0 -1.3084886847e-01 +4.0086783635e-02 -1.6036863113e-01 2.1082394303e-01 5.1100000000e-04 0.0000e+00 1.0000e+00
  1000022  1    3    3    0    0 -1.0904447377e+03 +9.3524266229e+02 -1.4966106303e+03 3.0604071530e+03 2.2500000000e+03 0.0000e+00 0.0000e+00
      -11  1    4    4    0    0 +3.5466369426e-02 -9.3251291097e-02 +2.8286719173e-02 1.0370181271e-01 5.1100000000e-04 0.0000e+00 -1.0000e+00
  1000022  1    4    4    0    0 +1.0905401202e+03 -9.3518949779e+02 -1.3841972251e+03 3.0070515640e+03 2.2500000000e+03 0.0000e+00 0.0000e+00
<mgrwt>
<rscale>  0 0.53402301E+04</rscale>
<asrwt>0</asrwt>
<pdfrwt beam="1">  1        2 0.68836255E+00 0.53402301E+04</pdfrwt>
<pdfrwt beam="2">  1       -2 0.24514103E+00 0.53402301E+04</pdfrwt>
<totfact> 0.62965740E-03</totfact>
</mgrwt>
</event>
<event>
 8      1 +1.2359593e-08 5.25016600e+03 7.81860800e-03 7.79103400e-02
        2 -1    0    0  501    0 +0.0000000000e+00 +0.0000000000e+00 +3.3974108879e+03 3.3974108879e+03 2.5500000000e-03 0.0000e+00 1.0000e+00
       -2 -1    0    0    0  501 -0.0000000000e+00 -0.0000000000e+00 -2.0283274484e+03 2.0283274484e+03 2.5500000000e-03 0.0000e+00 -1.0000e+00
  1000011  2    1    2    0    0 -1.3141405687e+03 -8.0896934746e+01 +1.0023775193e+03 2.7930718993e+03 2.2501067074e+03 2.7618e+03 0.0000e+00
 -1000011  2    1    2    0    0 +1.3141405687e+03 +8.0896934746e+01 +3.6670592012e+02 2.6326664370e+03 2.2500999063e+03 2.4282e+03 0.0000e+00
       11  1    3    3    0    0 -9.7197916667e-02 +7.6728800594e-02 -1.3623790365e-02 1.2458174787e-01 5.1100000000e-04 0.0000e+00 1.0000e+00
  1000022  1    3    3    0    0 -1.3140433708e+03 -8.0973663547e+01 +1.0023911431e+03 2.7929473175e+03 2.2500000000e+03 0.0000e+00 0.0000e+00
      -11  1    4    4    0    0 -3.0810764483e-02 +3.6828556209e-02 -4.3852303255e-02 6.5030230257e-02 5.1100000000e-04 0.0000e+00 -1.0000e+00
  1000022  1    4    4    0    0 +1.3141713795e+03 +8.0860106190e+01 +3.6674977242e+02 2.6326014068e+03 2.2500000000e+03 0.0000e+00 0.0000e+00
<mgrwt>
<rscale>  0 0.52501664E+04</rscale>
<asrwt>0</asrwt>
<pdfrwt beam="1">  1        2 0.52267860E+00 0.52501664E+04</pdfrwt>
<pdfrwt beam="2">  1       -2 0.31205038E+00 0.52501664E+04</pdfrwt>
<totfact> 0.18285653E-02</totfact>
</mgrwt>
</event>
<event>
 8      1 +1.2359593e-08 4.55596600e+03 7.81860800e-03 7.90091100e-02
       -1 -1    0    0    0  501 -0.0000000000e+00 +0.0000000000e+00 +1.2573476791e+03 1.2573476791e+03 5.0400000000e-03 0.0000e+00 -1.0000e+00
        1 -1    0    0  501    0 +0.0000000000e+00 -0.0000000000e+00 -4.1271052196e+03 4.1271052196e+03 5.0400000000e-03 0.0000e+00 1.0000e+00
  1000011  2    1    2    0    0 +4.5915861228e+01 -1.8888196281e+02 -1.0833456084e+03 2.5048685902e+03 2.2500987277e+03 1.7939e+03 0.0000e+00
 -1000011  2    1    2    0    0 -4.5915861228e+01 +1.8888196281e+02 -1.7864119322e+03 2.8795843086e+03 2.2501007837e+03 6.9075e+02 0.0000e+00
       11  1    3    3    0    0 -5.0924405288e-02 +7.0372079942e-02 -7.5528103524e-02 1.1510985907e-01 5.1100000000e-04 0.0000e+00 1.0000e+00
  1000022  1    3    3    0    0 +4.5966785634e+01 -1.8895233489e+02 -1.0832700803e+03 2.5047534803e+03 2.2500000000e+03 0.0000e+00 0.0000e+00
      -11  1    4    4    0    0 +8.5667870687e-02 +4.4827720498e-02 -3.7958290091e-02 1.0387300611e-01 5.1100000000e-04 0.0000e+00 -1.0000e+00
  1000022  1    4    4    0    0 -4.6001529099e+01 +1.8883713509e+02 -1.7863739739e+03 2.8794804356e+03 2.2500000000e+03 0.0000e+00 0.0000e+00
<mgrwt>
<rscale>  0 0.45559658E+04</rscale>
<asrwt>0</asrwt>
<pdfrwt beam="1">  1        1 0.63493926E+00 0.45559658E+04</pdfrwt>
<pdfrwt beam="2">  1       -1 0.19343811E+00 0.45559658E+04</pdfrwt>
<totfact> 0.91919447E-03</totfact>
</mgrwt>
</event>
<event>
 8      1 +1.2359593e-08 5.34023700e+03 7.81860800e-03 7.77806400e-02
       -2 -1    0    0    0  501 -0.0000000000e+00 +0.0000000000e+00 +1.7033625394e+03 1.7033625394e+03 2.5500000000e-03 0.0000e+00 -1.0000e+00
        2 -1    0    0  501    0 +0.0000000000e+00 -0.0000000000e+00 -4.1855631550e+03 4.1855631550e+03 2.5500000000e-03 0.0000e+00 1.0000e+00
  1000011  2    1    2    0    0 -1.3729450095e+03 -2.6129841293e+02 -8.6987098494e+02 2.7879863966e+03 2.2500972774e+03 1.2831e+03 0.0000e+00
 -1000011  2    1    2    0    0 +1.3729450095e+03 +2.6129841293e+02 -1.6123296306e+03 3.1009392977e+03 2.2501028489e+03 1.2100e+03 0.0000e+00
       11  1    3    3    0    0 -8.3972444897e-03 -1.7355565855e-02 -1.2025242226e-01 1.2178930773e-01 5.1100000000e-04 0.0000e+00 1.0000e+00
  1000022  1    3    3    0    0 -1.3729366122e+03 -2.6128105736e+02 -8.6975073252e+02 2.7878646073e+03 2.2500000000e+03 0.0000e+00 0.0000e+00
      -11  1    4    4    0    0 -1.6998539218e-02 -2.1591512948e-02 +3.6964184072e-02 4.6062519682e-02 5.1100000000e-04 0.0000e+00 -1.0000e+00
  1000022  1    4    4    0    0 +1.3729620080e+03 +2.6132000444e+02 -1.6123665948e+03 3.1008932352e+03 2.2500000000e+03 0.0000e+00 0.0000e+00
<mgrwt>
<rscale>  0 0.53402365E+04</rscale>
<asrwt>0</asrwt>
<pdfrwt beam="1">  1        2 0.64393279E+00 0.53402365E+04</pdfrwt>
<pdfrwt beam="2">  1       -2 0.26205578E+00 0.53402365E+04</pdfrwt>
<totfact> 0.91319517E-03</totfact>
</mgrwt>
</event>
<event>
 8      1 +1.2359593e-08 5.47677600e+03 7.81860800e-03 7.75889300e-02
       -2 -1    0    0    0  501 -0.0000000000e+00 +0.0000000000e+00 +1.6295548828e+03 1.6295548828e+03 2.5500000000e-03 0.0000e+00 -1.0000e+00
        2 -1    0    0  501    0 +0.0000000000e+00 -0.0000000000e+00 -4.6017288396e+03 4.6017288396e+03 2.5500000000e-03 0.0000e+00 1.0000e+00
  1000011  2    1    2    0    0 +1.2138347760e+03 +4.8156232602e+02 -5.1364776438e+02 2.6518155053e+03 2.2501098443e+03 1.7478e+03 0.0000e+00
 -1000011  2    1    2    0    0 -1.2138347760e+03 -4.8156232602e+02 -2.4585261924e+03 3.5794682171e+03 2.2500987847e+03 1.4448e+02 0.0000e+00
       11  1    3    3    0    0 +6.5145154372e-02 -9.7828106289e-03 -1.3098257010e-01 1.4661612773e-01 5.1100000000e-04 0.0000e+00 1.0000e+00
  1000022  1    3    3    0    0 +1.2137696308e+03 +4.8157210883e+02 -5.1351678181e+02 2.6516688892e+03 2.2500000000e+03 0.0000e+00 0.0000e+00
      -11  1    4    4    0    0 +2.4395665614e-02 -4.7793302156e-02 +8.5993042968e-03 5.4346637072e-02 5.1100000000e-04 0.0000e+00 -1.0000e+00
  1000022  1    4    4    0    0 -1.2138591717e+03 -4.8151453272e+02 -2.4585347917e+03 3.5794138705e+03 2.2500000000e+03 0.0000e+00 0.0000e+00
<mgrwt>
<rscale>  0 0.54767763E+04</rscale>
<asrwt>0</asrwt>
<pdfrwt beam="1">  1        2 0.70795828E+00 0.54767763E+04</pdfrwt>
<pdfrwt beam="2">  1       -2 0.25070075E+00 0.54767763E+04</pdfrwt>
<totfact> 0.42884757E-03</totfact>
</mgrwt>
</event>
<event>
 8      1 +1.2359593e-08 5.06109600e+03 7.81860800e-03 7.81915100e-02
        2 -1    0    0  501    0 +0.0000000000e+00 +0.0000000000e+00 +2.7434660601e+03 2.7434660601e+03 2.5500000000e-03 0.0000e+00 1.0000e+00
       -2 -1    0    0    0  501 -0.0000000000e+00 -0.0000000000e+00 -2.3341545846e+03 2.3341545846e+03 2.5500000000e-03 0.0000e+00 -1.0000e+00
  1000011  2    1    2    0    0 -1.1409856610e+03 +1.9529537839e+02 +1.7761942424e+02 2.5366323034e+03 2.2501036019e+03 1.4823e+03 0.0000e+00
 -1000011  2    1    2    0    0 +1.1409856610e+03 -1.9529537839e+02 +2.3169205123e+02 2.5409883413e+03 2.2501004379e+03 9.1260e+02 0.0000e+00
       11  1    3    3    0    0 -1.4618958761e-01 +1.5722584592e-02 +7.2512444262e-02 1.6394179020e-01 5.1100000000e-04 0.0000e+00 1.0000e+00
  1000022  1    3    3    0    0 -1.1408394714e+03 +1.9527965581e+02 +1.7754691180e+02 2.5364683616e+03 2.2500000000e+03 0.0000e+00 0.0000e+00
      -11  1    4    4    0    0 +1.9332599500e-02 -3.4475250876e-02 +1.0221088035e-01 1.0958839958e-01 5.1100000000e-04 0.0000e+00 -1.0000e+00
  1000022  1    4    4    0    0 +1.1409663284e+03 -1.9526090314e+02 +2.3158984035e+02 2.5408787529e+03 2.2500000000e+03 0.0000e+00 0.0000e+00
<mgrwt>
<rscale>  0 0.50610963E+04</rscale>
<asrwt>0</asrwt>
<pdfrwt beam="1">  1        2 0.42207170E+00 0.50610963E+04</pdfrwt>
<pdfrwt beam="2">  1       -2 0.35910071E+00 0.50610963E+04</pdfrwt>
<totfact> 0.24692425E-02</totfact>
</mgrwt>
</event>
<event>
 8      1 +1.2359593e-08 5.11424400e+03 7.81860800e-03 7.81112200e-02
       -2 -1    0    0    0  501 -0.0000000000e+00 +0.0000000000e+00 +1.7995666890e+03 1.7995666890e+03 2.5500000000e-03 0.0000e+00 -1.0000e+00
        2 -1    0    0  501    0 +0.0000000000e+00 -0.0000000000e+00 -3.6335825299e+03 3.6335825299e+03 2.5500000000e-03 0.0000e+00 1.0000e+00
  1000011  2    1    2    0    0 +1.0734731948e+03 -1.8400078872e+02 -3.4519145031e+02 2.5235499441e+03 2.2500991518e+03 4.9340e+02 0.0000e+00
 -1000011  2    1    2    0    0 -1.0734731948e+03 +1.8400078872e+02 -1.4888243906e+03 2.9095992748e+03 2.2501041939e+03 1.2067e+03 0.0000e+00
       11  1    3    3    0    0 +1.7566308384e-02 +2.7354681467e-02 -1.0295479641e-01 1.0796668311e-01 5.1100000000e-04 0.0000e+00 1.0000e+00
  1000022  1    3    3    0    0 +1.0734556285e+03 -1.8402814341e+02 -3.4508849551e+02 2.5234419775e+03 2.2500000000e+03 0.0000e+00 0.0000e+00
      -11  1    4    4    0    0 -1.1007401972e-01 -7.5947879200e-02 -5.5580029208e-02 1.4482323960e-01 5.1100000000e-04 0.0000e+00 -1.0000e+00
  1000022  1    4    4    0    0 -1.0733631208e+03 +1.8407673660e+02 -1.4887688106e+03 2.9094544515e+03 2.2500000000e+03 0.0000e+00 0.0000e+00
<mgrwt>
<rscale>  0 0.51142445E+04</rscale>
<asrwt>0</asrwt>
<pdfrwt beam="1">  1        2 0.55901270E+00 0.51142445E+04</pdfrwt>
<pdfrwt beam="2">  1       -2 0.27685641E+00 0.51142445E+04</pdfrwt>
<totfact> 0.20678108E-02</totfact>
</mgrwt>
</event>
<event>
 8      1 +1.2359593e-08 4.72367300e+03 7.81860800e-03 7.87260700e-02
       -2 -1    0    0    0  501 -0.0000000000e+00 +0.0000000000e+00 +1.5760331402e+03 1.5760331402e+03 2.5500000000e-03 0.0000e+00 -1.0000e+00
        2 -1    0    0  501    0 +0.0000000000e+00 -0.0000000000e+00 -3.5394387744e+03 3.5394387744e+03 2.5500000000e-03 0.0000e+00 1.0000e+00
  1000011  2    1    2    0    0 +3.5726198405e+02 +6.1511297606e+02 -8.7712540749e+02 2.5175971710e+03 2.2500992059e+03 1.9105e+03 0.0000e+00
 -1000011  2    1    2    0    0 -3.5726198405e+02 -6.1511297606e+02 -1.0862802267e+03 2.5978747436e+03 2.2500996320e+03 3.1340e+02 0.0000e+00
       11  1    3    3    0    0 -5.8594264754e-02 -8.4273697078e-03 -9.3900692152e-02 1.1100409489e-01 5.1100000000e-04 0.0000e+00 1.0000e+00
  1000022  1    3    3    0    0 +3.5732057831e+02 +6.1512140343e+02 -8.7703150680e+02 2.5174861669e+03 2.2500000000e+03 0.0000e+00 0.0000e+00
      -11  1    4    4    0    0 +2.8532677950e-02 +6.2005066057e-02 -1.3963152704e-03 6.8271170413e-02 5.1100000000e-04 0.0000e+00 -1.0000e+00
  1000022  1    4    4    0    0 -3.5729051673e+02 -6.1517498112e+02 -1.0862788304e+03 2.5978064724e+03 2.2500000000e+03 0.0000e+00 0.0000e+00
<mgrwt>
<rscale>  0 0.47236735E+04</rscale>
<asrwt>0</asrwt>
<pdfrwt beam="1">  1        2 0.54452904E+00 0.47236735E+04</pdfrwt>
<pdfrwt beam="2">  1       -2 0.24246664E+00 0.47236735E+04</pdfrwt>
<totfact> 0.40501076E-02</totfact>
</mgrwt>
</event>
<event>
 8      1 +1.2359593e-08 5.36447600e+03 7.81860800e-03 7.77461800e-02
       -2 -1    0    0    0  501 -0.0000000000e+00 +0.0000000000e+00 +1.8749581191e+03 1.8749581191e+03 2.5500000000e-03 0.0000e+00 -1.0000e+00
        2 -1    0    0  501    0 +0.0000000000e+00 -0.0000000000e+00 -3.8370990876e+03 3.8370990876e+03 2.5500000000e-03 0.0000e+00 1.0000e+00
  1000011  2    1    2    0    0 +3.7627967952e+02 -1.0469008002e+03 -1.9877700710e+03 3.2018386813e+03 2.2501007540e+03 4.8922e+01 0.0000e+00
 -1000011  2    1    2    0    0 -3.7627967952e+02 +1.0469008002e+03 +2.5629102593e+01 2.5102185254e+03 2.2501005559e+03 1.1833e+03 0.0000e+00
       11  1    3    3    0    0 +1.1790075013e-01 -5.5642418669e-02 -1.2263839236e-01 1.7898911113e-01 5.1100000000e-04 0.0000e+00 1.0000e+00
  1000022  1    3    3    0    0 +3.7616177877e+02 -1.0468451578e+03 -1.9876474326e+03 3.2016596922e+03 2.2500000000e+03 0.0000e+00 0.0000e+00
      -11  1    4    4    0    0 +7.4998568508e-02 +4.8379847872e-02 -4.2002162048e-02 9.8639937109e-02 5.1100000000e-04 0.0000e+00 -1.0000e+00
  1000022  1    4    4    0    0 -3.7635467809e+02 +1.0468524204e+03 +2.5671104755e+01 2.5101198855e+03 2.2500000000e+03 0.0000e+00 0.0000e+00
<mgrwt>
<rscale>  0 0.53644758E+04</rscale>
<asrwt>0</asrwt>
<pdfrwt beam="1">  1        2 0.59032294E+00 0.53644758E+04</pdfrwt>
<pdfrwt beam="2">  1       -2 0.28845509E+00 0.53644758E+04</pdfrwt>
<totfact> 0.12121354E-02</totfact>
</mgrwt>
</event>
<event>
 8      1 +1.2359593e-08 4.61954500e+03 7.81860800e-03 7.89003600e-02
        2 -1    0    0  501    0 +0.0000000000e+00 +0.0000000000e+00 +1.6054834949e+03 1.6054834949e+03 2.5500000000e-03 0.0000e+00 1.0000e+00
       -2 -1    0    0    0  501 -0.0000000000e+00 -0.0000000000e+00 -3.3230176625e+03 3.3230176625e+03 2.5500000000e-03 0.0000e+00 -1.0000e+00
  1000011  2    1    2    0    0 +2.9559729736e+02 -1.3582707634e+02 -4.2370843868e+02 2.3126411484e+03 2.2501007718e+03 2.1911e+03 0.0000e+00
 -1000011  2    1    2    0    0 -2.9559729736e+02 +1.3582707634e+02 -1.2938257289e+03 2.6158600090e+03 2.2500915122e+03 1.7844e+02 0.0000e+00
       11  1    3    3    0    0 -1.9156834580e-02 -9.7630295530e-02 -4.6608304938e-02 1.0986925818e-01 5.1100000000e-04 0.0000e+00 1.0000e+00
  1000022  1    3    3    0    0 +2.9561645420e+02 -1.3572944604e+02 -4.2366183038e+02 2.3125312791e+03 2.2500000000e+03 0.0000e+00 0.0000e+00
      -11  1    4    4    0    0 +2.6314934156e-02 -3.2594321963e-02 -1.3384730970e-01 1.4025059198e-01 5.1100000000e-04 0.0000e+00 -1.0000e+00
  1000022  1    4    4    0    0 -2.9562361230e+02 +1.3585967066e+02 -1.2936918816e+03 2.6157197584e+03 2.2500000000e+03 0.0000e+00 0.0000e+00
<mgrwt>
<rscale>  0 0.46195454E+04</rscale>
<asrwt>0</asrwt>
<pdfrwt beam="1">  1        2 0.24699746E+00 0.46195454E+04</pdfrwt>
<pdfrwt beam="2">  1       -2 0.51123349E+00 0.46195454E+04</pdfrwt>
<totfact> 0.11764342E-02</totfact>
</mgrwt>
</event>
<event>
 8      1 +1.2359593e-08 4.85961300e+03 7.81860800e-03 7.85053600e-02
       -2 -1    0    0    0  501 -0.0000000000e+00 +0.0000000000e+00 +3.3397999339e+03 3.3397999339e+03 2.5500000000e-03 0.0000e+00 -1.0000e+00
        2 -1    0    0  501    0 +0.0000000000e+00 -0.0000000000e+00 -1.7677585651e+03 1.7677585651e+03 2.5500000000e-03 0.0000e+00 1.0000e+00
  1000011  2    1    2    0    0 +3.2254473814e+02 -2.1653797433e+01 -1.1596690921e+02 2.2761600212e+03 2.2501004696e+03 2.7121e+02 0.0000e+00
 -1000011  2    1    2    0    0 -3.2254473814e+02 +2.1653797433e+01 +1.6880082781e+03 2.8313984778e+03 2.2500980863e+03 6.8776e+02 0.0000e+00
       11  1    3    3    0    0 +1.0451881552e-01 +4.2891816275e-02 +8.4127151180e-03 1.1329132968e-01 5.1100000000e-04 0.0000e+00 1.0000e+00
  1000022  1    3    3    0    0 +3.2244021933e+02 -2.1696689249e+01 -1.1597532192e+02 2.2760467299e+03 2.2500000000e+03 0.0000e+00 0.0000e+00
      -11  1    4    4    0    0 -9.6943207377e-03 +9.8926124421e-02 +7.2719945386e-02 1.2316171836e-01 5.1100000000e-04 0.0000e+00 -1.0000e+00
  1000022  1    4    4    0    0 -3.2253504382e+02 +2.1554871308e+01 +1.6879355581e+03 2.8312753161e+03 2.2500000000e+03 0.0000e+00 0.0000e+00
<mgrwt>
<rscale>  0 0.48596131E+04</rscale>
<asrwt>0</asrwt>
<pdfrwt beam="1">  1        2 0.27196286E+00 0.48596131E+04</pdfrwt>
<pdfrwt beam="2">  1       -2 0.51381537E+00 0.48596131E+04</pdfrwt>
<totfact> 0.90590379E-03</totfact>
</mgrwt>
</event>
<event>
 8      1 +1.2359593e-08 4.63795300e+03 7.81860800e-03 7.88692100e-02
       -2 -1    0    0    0  501 -0.0000000000e+00 +0.0000000000e+00 +2.3379596635e+03 2.3379596635e+03 2.5500000000e-03 0.0000e+00 -1.0000e+00
        2 -1    0    0  501    0 +0.0000000000e+00 -0.0000000000e+00 -2.3001475388e+03 2.3001475388e+03 2.5500000000e-03 0.0000e+00 1.0000e+00
  1000011  2    1    2    0    0 +3.3137140244e+02 -7.7059123052e+01 +4.6497633310e+02 2.3226915672e+03 2.2500995559e+03 8.6585e+02 0.0000e+00
 -1000011  2    1    2    0    0 -3.3137140244e+02 +7.7059123052e+01 -4.2716420846e+02 2.3154156351e+03 2.2500967062e+03 1.1859e+03 0.0000e+00
       11  1    3    3    0    0 +1.0034948178e-01 +3.5571668783e-02 -1.2106957912e-02 1.0715503289e-01 5.1100000000e-04 0.0000e+00 1.0000e+00
  1000022  1    3    3    0    0 +3.3127105296e+02 -7.7094694721e+01 +4.6498844005e+02 2.3225844122e+03 2.2500000000e+03 0.0000e+00 0.0000e+00
      -11  1    4    4    0    0 -1.0584099646e-01 -9.8645724201e-03 +1.0640752150e-02 1.0683216931e-01 5.1100000000e-04 0.0000e+00 -1.0000e+00
  1000022  1    4    4    0    0 -3.3126556144e+02 +7.7068987625e+01 -4.2717484921e+02 2.3153088029e+03 2.2500000000e+03 0.0000e+00 0.0000e+00
<mgrwt>
<rscale>  0 0.46379531E+04</rscale>
<asrwt>0</asrwt>
<pdfrwt beam="1">  1        2 0.35386885E+00 0.46379531E+04</pdfrwt>
<pdfrwt beam="2">  1       -2 0.35968610E+00 0.46379531E+04</pdfrwt>
<totfact> 0.45886507E-02</totfact>
</mgrwt>
</event>
<event>
 8      1 +1.2359593e-08 4.83679000e+03 7.81860800e-03 7.85418900e-02
       -2 -1    0    0    0  501 -0.0000000000e+00 +0.0000000000e+00 +2.2262279921e+03 2.2262279921e+03 2.5500000000e-03 0.0000e+00 -1.0000e+00
        2 -1    0    0  501    0 +0.0000000000e+00 -0.0000000000e+00 -2.6271501101e+03 2.6271501101e+03 2.5500000000e-03 0.0000e+00 1.0000e+00
  1000011  2    1    2    0    0 +6.4461589645e+02 -5.7554933706e+02 -3.9838546245e+02 2.4430393123e+03 2.2500985337e+03 1.2345e+03 0.0000e+00
 -1000011  2    1    2    0    0 -6.4461589645e+02 +5.7554933706e+02 -2.5366554771e+00 2.4103387899e+03 2.2500977655e+03 2.0075e+03 0.0000e+00
       11  1    3    3    0    0 -2.4223154607e-02 +4.0677533851e-02 -7.2510789990e-02 8.6599645438e-02 5.1100000000e-04 0.0000e+00 1.0000e+00
  1000022  1    3    3    0    0 +6.4464011961e+02 -5.7559001460e+02 -3.9831295166e+02 2.4429527126e+03 2.2500000000e+03 0.0000e+00 0.0000e+00
      -11  1    4    4    0    0 -1.2854095205e-01 +3.1322582142e-02 +1.4584639305e-02 1.3310466998e-01 5.1100000000e-04 0.0000e+00 -1.0000e+00
  1000022  1    4    4    0    0 -6.4448735550e+02 +5.7551801448e+02 -2.5512401164e+00 2.4102056853e+03 2.2500000000e+03 0.0000e+00 0.0000e+00
<mgrwt>
<rscale>  0 0.48367903E+04</rscale>
<asrwt>0</asrwt>
<pdfrwt beam="1">  1        2 0.40417694E+00 0.48367903E+04</pdfrwt>
<pdfrwt beam="2">  1       -2 0.34249662E+00 0.48367903E+04</pdfrwt>
<totfact> 0.37520978E-02</totfact>
</mgrwt>
</event>
<event>
 8      1 +1.2359593e-08 5.16670800e+03 7.81860800e-03 7.80329300e-02
       -2 -1    0    0    0  501 -0.0000000000e+00 +0.0000000000e+00 +3.6128494500e+03 3.6128494500e+03 2.5500000000e-03 0.0000e+00 -1.0000e+00
        2 -1    0    0  501    0 +0.0000000000e+00 -0.0000000000e+00 -1.8472169627e+03 1.8472169627e+03 2.5500000000e-03 0.0000e+00 1.0000e+00
  1000011  2    1    2    0    0 -7.2344014454e+02 +6.8044258748e+02 +1.7178687503e+03 3.0000681746e+03 2.2501040534e+03 1.6086e+03 0.0000e+00
 -1000011  2    1    2    0    0 +7.2344014454e+02 -6.8044258748e+02 +4.7763737016e+01 2.4599982381e+03 2.2500982643e+03 1.4084e+03 0.0000e+00
       11  1    3    3    0    0 -2.7815614551e-02 -2.9636595781e-02 -3.8494629733e-02 5.5983332876e-02 5.1100000000e-04 0.0000e+00 1.0000e+00
  1000022  1    3    3    0    0 -7.2341232893e+02 +6.8047222408e+02 +1.7179072450e+03 3.0000121912e+03 2.2500000000e+03 0.0000e+00 0.0000e+00
      -11  1    4    4    0    0 +6.8019171257e-02 -1.1613107086e-01 +4.8145773926e-02 1.4293813088e-01 5.1100000000e-04 0.0000e+00 -1.0000e+00
  1000022  1    4    4    0    0 +7.2337212537e+02 -6.8032645641e+02 +4.7715591242e+01 2.4598553000e+03 2.2500000000e+03 0.0000e+00 0.0000e+00
<mgrwt>
<rscale>  0 0.51667076E+04</rscale>
<asrwt>0</asrwt>
<pdfrwt beam="1">  1        2 0.28418723E+00 0.51667076E+04</pdfrwt>
<pdfrwt beam="2">  1       -2 0.55582299E+00 0.51667076E+04</pdfrwt>
<totfact> 0.47102597E-03</totfact>
</mgrwt>
</event>
<event>
 8      1 +1.2359593e-08 4.76799600e+03 7.81860800e-03 7.86532800e-02
        2 -1    0    0  501    0 +0.0000000000e+00 +0.0000000000e+00 +3.8826934843e+03 3.8826934843e+03 2.5500000000e-03 0.0000e+00 1.0000e+00
       -2 -1    0    0    0  501 -0.0000000000e+00 -0.0000000000e+00 -1.4637894084e+03 1.4637894084e+03 2.5500000000e-03 0.0000e+00 -1.0000e+00
  1000011  2    1    2    0    0 +2.2140368477e+02 +2.8162700688e+02 +4.2279565358e+02 2.3173364671e+03 2.2501019476e+03 4.0107e+02 0.0000e+00
 -1000011  2    1    2    0    0 -2.2140368477e+02 -2.8162700688e+02 +1.9961084223e+03 3.0291464256e+03 2.2500990804e+03 3.1526e+03 0.0000e+00
       11  1    3    3    0    0 -6.9735131124e-02 -5.0652529474e-02 +3.2403161839e-02 9.2080904480e-02 5.1100000000e-04 0.0000e+00 1.0000e+00
  1000022  1    3    3    0    0 +2.2147341990e+02 +2.8167765941e+02 +4.2276325041e+02 2.3172443862e+03 2.2500000000e+03 0.0000e+00 0.0000e+00
      -11  1    4    4    0    0 -2.8298668216e-03 +8.6022390993e-02 +5.5793227641e-02 1.0257195187e-01 5.1100000000e-04 0.0000e+00 -1.0000e+00
  1000022  1    4    4    0    0 -2.2140085490e+02 -2.8171302927e+02 +1.9960526291e+03 3.0290438537e+03 2.2500000000e+03 0.0000e+00 0.0000e+00
<mgrwt>
<rscale>  0 0.47679956E+04</rscale>
<asrwt>0</asrwt>
<pdfrwt beam="1">  1        2 0.59733745E+00 0.47679956E+04</pdfrwt>
<pdfrwt beam="2">  1       -2 0.22519837E+00 0.47679956E+04</pdfrwt>
<totfact> 0.28711273E-02</totfact>
</mgrwt>
</event>
<event>
 8      1 +1.2359593e-08 4.77214400e+03 7.81860800e-03 7.86465100e-02
        2 -1    0    0  501    0 +0.0000000000e+00 +0.0000000000e+00 +1.8306616245e+03 1.8306616245e+03 2.5500000000e-03 0.0000e+00 1.0000e+00
       -2 -1    0    0    0  501 -0.0000000000e+00 -0.0000000000e+00 -3.1099904444e+03 3.1099904444e+03 2.5500000000e-03 0.0000e+00 -1.0000e+00
  1000011  2    1    2    0    0 +5.7447308541e+02 +2.4613038244e+02 -1.1466297152e+03 2.6015999505e+03 2.2501029104e+03 8.1680e+02 0.0000e+00
 -1000011  2    1    2    0    0 -5.7447308541e+02 -2.4613038244e+02 -1.3269910470e+02 2.3390521185e+03 2.2501013910e+03 3.7376e+02 0.0000e+00
       11  1    3    3    0    0 +5.2556363520e-02 -3.8406807690e-02 +4.3008178471e-02 7.8020627795e-02 5.1100000000e-04 0.0000e+00 1.0000e+00
  1000022  1    3    3    0    0 +5.7442052905e+02 +2.4616878925e+02 -1.1466727234e+03 2.6015219298e+03 2.2500000000e+03 0.0000e+00 0.0000e+00
      -11  1    4    4    0    0 -4.2983384933e-02 +8.7387231689e-02 +1.2492137946e-02 9.8185609128e-02 5.1100000000e-04 0.0000e+00 -1.0000e+00
  1000022  1    4    4    0    0 -5.7443010203e+02 -2.4621776967e+02 -1.3271159684e+02 2.3389539329e+03 2.2500000000e+03 0.0000e+00 0.0000e+00
<mgrwt>
<rscale>  0 0.47721442E+04</rscale>
<asrwt>0</asrwt>
<pdfrwt beam="1">  1        2 0.28164025E+00 0.47721442E+04</pdfrwt>
<pdfrwt beam="2">  1       -2 0.47846007E+00 0.47721442E+04</pdfrwt>
<totfact> 0.13950482E-02</totfact>
</mgrwt>
</event>
<event>
 8      1 +1.2359593e-08 4.74589700e+03 7.81860800e-03 7.86894700e-02
        2 -1    0    0  501    0 +0.0000000000e+00 +0.0000000000e+00 +2.7188557539e+03 2.7188557539e+03 2.5500000000e-03 0.0000e+00 1.0000e+00
       -2 -1    0    0    0  501 -0.0000000000e+00 -0.0000000000e+00 -2.0710495663e+03 2.0710495663e+03 2.5500000000e-03 0.0000e+00 -1.0000e+00
  1000011  2    1    2    0    0 +6.7451688537e+02 -1.6336091531e+02 +2.7439271139e+01 2.3548595638e+03 2.2501001832e+03 2.9125e+02 0.0000e+00
 -1000011  2    1    2    0    0 -6.7451688537e+02 +1.6336091531e+02 +6.2036691642e+02 2.4350457564e+03 2.2500961996e+03 1.7219e+03 0.0000e+00
       11  1    3    3    0    0 +2.0438084123e-02 -4.8307755005e-02 +9.2114171556e-02 1.0600299940e-01 5.1100000000e-04 0.0000e+00 1.0000e+00
  1000022  1    3    3    0    0 +6.7449644728e+02 -1.6331260756e+02 +2.7347156968e+01 2.3547535608e+03 2.2500000000e+03 0.0000e+00 0.0000e+00
      -11  1    4    4    0    0 -5.5905055772e-02 +8.3609755196e-03 -6.7203078279e-02 8.7816829761e-02 5.1100000000e-04 0.0000e+00 -1.0000e+00
  1000022  1    4    4    0    0 -6.7446098031e+02 +1.6335255434e+02 +6.2043411950e+02 2.4349579396e+03 2.2500000000e+03 0.0000e+00 0.0000e+00
<mgrwt>
<rscale>  0 0.47458972E+04</rscale>
<asrwt>0</asrwt>
<pdfrwt beam="1">  1        2 0.41828550E+00 0.47458972E+04</pdfrwt>
<pdfrwt beam="2">  1       -2 0.31862301E+00 0.47458972E+04</pdfrwt>
<totfact> 0.46929579E-02</totfact>
</mgrwt>
</event>
<event>
 8      1 +1.2359593e-08 5.15028200e+03 7.81860800e-03 7.80573400e-02
       -2 -1    0    0    0  501 -0.0000000000e+00 +0.0000000000e+00 +1.7653070387e+03 1.7653070387e+03 2.5500000000e-03 0.0000e+00 -1.0000e+00
        2 -1    0    0  501    0 +0.0000000000e+00 -0.0000000000e+00 -3.7564859840e+03 3.7564859840e+03 2.5500000000e-03 0.0000e+00 1.0000e+00
  1000011  2    1    2    0    0 -8.8557486124e+02 +8.6429172037e+02 -1.2022572230e+03 2.8354216770e+03 2.2501001407e+03 3.0092e+02 0.0000e+00
 -1000011  2    1    2    0    0 +8.8557486124e+02 -8.6429172037e+02 -7.8892172228e+02 2.6863713457e+03 2.2501001112e+03 1.0447e+03 0.0000e+00
       11  1    3    3    0    0 -1.2312060996e-01 +2.6450092249e-02 -1.3037820493e-01 1.8126507954e-01 5.1100000000e-04 0.0000e+00 1.0000e+00
  1000022  1    3    3    0    0 -8.8545174063e+02 +8.6426527027e+02 -1.2021268448e+03 2.8352404119e+03 2.2500000000e+03 0.0000e+00 0.0000e+00
      -11  1    4    4    0    0 +7.3944016976e-02 -1.4134406736e-01 -7.0529271508e-02 1.7441474107e-01 5.1100000000e-04 0.0000e+00 -1.0000e+00
  1000022  1    4    4    0    0 +8.8550091722e+02 -8.6415037630e+02 -7.8885119301e+02 2.6861969310e+03 2.2500000000e+03 0.0000e+00 0.0000e+00
<mgrwt>
<rscale>  0 0.51502820E+04</rscale>
<asrwt>0</asrwt>
<pdfrwt beam="1">  1        2 0.57792092E+00 0.51502820E+04</pdfrwt>
<pdfrwt beam="2">  1       -2 0.27158570E+00 0.51502820E+04</pdfrwt>
<totfact> 0.18006161E-02</totfact>
</mgrwt>
</event>
<event>
 8      1 +1.2359593e-08 4.59067000e+03 7.81860800e-03 7.89495300e-02
        2 -1    0    0  501    0 +0.0000000000e+00 +0.0000000000e+00 +1.7300611435e+03 1.7300611435e+03 2.5500000000e-03 0.0000e+00 1.0000e+00
       -2 -1    0    0    0  501 -0.0000000000e+00 -0.0000000000e+00 -3.0453047176e+03 3.0453047176e+03 2.5500000000e-03 0.0000e+00 -1.0000e+00
  1000011  2    1    2    0    0 +2.1650986339e+02 -3.6870880075e+02 -5.0057972091e+02 2.3444303232e+03 2.2501001717e+03 4.0103e+02 0.0000e+00
 -1000011  2    1    2    0    0 -2.1650986339e+02 +3.6870880075e+02 -8.1466385312e+02 2.4309355379e+03 2.2500994857e+03 1.1762e+03 0.0000e+00
       11  1    3    3    0    0 -8.0384946292e-02 +2.9783578933e-02 -2.6001594826e-02 8.9583172530e-02 5.1100000000e-04 0.0000e+00 1.0000e+00
  1000022  1    3    3    0    0 +2.1659024834e+02 -3.6873858433e+02 -5.0055371931e+02 2.3443407400e+03 2.2500000000e+03 0.0000e+00 0.0000e+00
      -11  1    4    4    0    0 +6.8298048643e-02 +7.6098143623e-02 -5.4016790793e-02 1.1564439129e-01 5.1100000000e-04 0.0000e+00 -1.0000e+00
  1000022  1    4    4    0    0 -2.1657816144e+02 +3.6863270261e+02 -8.1460983633e+02 2.4308198936e+03 2.2500000000e+03 0.0000e+00 0.0000e+00
<mgrwt>
<rscale>  0 0.45906703E+04</rscale>
<asrwt>0</asrwt>
<pdfrwt beam="1">  1        2 0.26616325E+00 0.45906703E+04</pdfrwt>
<pdfrwt beam="2">  1       -2 0.46850842E+00 0.45906703E+04</pdfrwt>
<totfact> 0.18659044E-02</totfact>
</mgrwt>
</event>
<event>
 8      1 +1.2359593e-08 5.02807300e+03 7.81860800e-03 7.82419100e-02
        2 -1    0    0  501    0 +0.0000000000e+00 +0.0000000000e+00 +3.1844852332e+03 3.1844852333e+03 2.5500000000e-03 0.0000e+00 1.0000e+00
       -2 -1    0    0    0  501 -0.0000000000e+00 -0.0000000000e+00 -1.9847414724e+03 1.9847414724e+03 2.5500000000e-03 0.0000e+00 -1.0000e+00
  1000011  2    1    2    0    0 -6.6693924076e+01 -3.4265858746e+02 +1.6954177696e+03 2.8388828055e+03 2.2501002606e+03 3.3455e+03 0.0000e+00
 -1000011  2    1    2    0    0 +6.6693924076e+01 +3.4265858746e+02 -4.9567400875e+02 2.3303439002e+03 2.2500993274e+03 1.4845e+03 0.0000e+00
       11  1    3    3    0    0 -6.9282317761e-02 +3.9541897537e-02 +1.3551149471e-01 1.5724893459e-01 5.1100000000e-04 0.0000e+00 1.0000e+00
  1000022  1    3    3    0    0 -6.6624641758e+01 -3.4269812936e+02 +1.6952822581e+03 2.8387255565e+03 2.2500000000e+03 0.0000e+00 0.0000e+00
      -11  1    4    4    0    0 +2.7238051430e-02 +9.7187323891e-02 -7.8015351626e-02 1.2756936587e-01 5.1100000000e-04 0.0000e+00 -1.0000e+00
  1000022  1    4    4    0    0 +6.6666686024e+01 +3.4256140014e+02 -4.9559599340e+02 2.3302163309e+03 2.2500000000e+03 0.0000e+00 0.0000e+00
<mgrwt>
<rscale>  0 0.50280732E+04</rscale>
<asrwt>0</asrwt>
<pdfrwt beam="1">  1        2 0.48992081E+00 0.50280732E+04</pdfrwt>
<pdfrwt beam="2">  1       -2 0.30534484E+00 0.50280732E+04</pdfrwt>
<totfact> 0.28391877E-02</totfact>
</mgrwt>
</event>
<event>
 8      1 +1.2359593e-08 4.83590500e+03 7.81860800e-03 7.85433100e-02
       -2 -1    0    0    0  501 -0.0000000000e+00 +0.0000000000e+00 +1.6844226435e+03 1.6844226435e+03 2.5500000000e-03 0.0000e+00 -1.0000e+00
        2 -1    0    0  501    0 +0.0000000000e+00 -0.0000000000e+00 -3.4709187548e+03 3.4709187548e+03 2.5500000000e-03 0.0000e+00 1.0000e+00
  1000011  2    1    2    0    0 +3.6264804257e+01 +5.5005595240e+02 -1.6315688789e+03 2.8335261935e+03 2.2501059966e+03 7.9088e+02 0.0000e+00
 -1000011  2    1    2    0    0 -3.6264804257e+01 -5.5005595240e+02 -1.5492723238e+02 2.3218152049e+03 2.2500992670e+03 1.6657e+02 0.0000e+00
       11  1    3    3    0    0 +9.3697497782e-05 +8.4228274654e-02 +2.2957943666e-02 8.7302570395e-02 5.1100000000e-04 0.0000e+00 1.0000e+00
  1000022  1    3    3    0    0 +3.6264710559e+01 +5.4997172412e+02 -1.6315918369e+03 2.8334388909e+03 2.2500000000e+03 0.0000e+00 0.0000e+00
      -11  1    4    4    0    0 -6.9722187944e-02 +4.8522878848e-02 -1.9096332184e-02 8.7066547780e-02 5.1100000000e-04 0.0000e+00 -1.0000e+00
  1000022  1    4    4    0    0 -3.6195082069e+01 -5.5010447528e+02 -1.5490813605e+02 2.3217281383e+03 2.2500000000e+03 0.0000e+00 0.0000e+00
<mgrwt>
<rscale>  0 0.48359049E+04</rscale>
<asrwt>0</asrwt>
<pdfrwt beam="1">  1        2 0.53398750E+00 0.48359049E+04</pdfrwt>
<pdfrwt beam="2">  1       -2 0.25914194E+00 0.48359049E+04</pdfrwt>
<totfact> 0.35416470E-02</totfact>
</mgrwt>
</event>
<event>
 8      1 +1.2359593e-08 4.53325700e+03 7.81860800e-03 7.90484000e-02
        2 -1    0    0  501    0 +0.0000000000e+00 +0.0000000000e+00 +3.4258449606e+03 3.4258449606e+03 2.5500000000e-03 0.0000e+00 1.0000e+00
       -2 -1    0    0    0  501 -0.0000000000e+00 -0.0000000000e+00 -1.4996603361e+03 1.4996603361e+03 2.5500000000e-03 0.0000e+00 -1.0000e+00
  1000011  2    1    2    0    0 +1.0904898234e+02 +2.3135064877e+02 +1.0675545687e+03 2.5036024091e+03 2.2500972118e+03 8.0973e+01 0.0000e+00
 -1000011  2    1    2    0    0 -1.0904898234e+02 -2.3135064877e+02 +8.5863005583e+02 2.4219028876e+03 2.2501007135e+03 2.1186e+03 0.0000e+00
       11  1    3    3    0    0 +8.9675523601e-02 -3.6893553690e-02 +5.2092860361e-02 1.1007615803e-01 5.1100000000e-04 0.0000e+00 1.0000e+00
  1000022  1    3    3    0    0 +1.0895930682e+02 +2.3138754232e+02 +1.0675024758e+03 2.5034923329e+03 2.2500000000e+03 0.0000e+00 0.0000e+00
      -11  1    4    4    0    0 -6.9989483394e-02 -6.0308710654e-02 -2.1497123089e-02 9.4858079877e-02 5.1100000000e-04 0.0000e+00 -1.0000e+00
  1000022  1    4    4    0    0 -1.0897899286e+02 -2.3129034006e+02 +8.5865155295e+02 2.4218080295e+03 2.2500000000e+03 0.0000e+00 0.0000e+00
<mgrwt>
<rscale>  0 0.45332566E+04</rscale>
<asrwt>0</asrwt>
<pdfrwt beam="1">  1        2 0.52705307E+00 0.45332566E+04</pdfrwt>
<pdfrwt beam="2">  1       -2 0.23071698E+00 0.45332566E+04</pdfrwt>
<totfact> 0.58431231E-02</totfact>
</mgrwt>
</event>
<event>
 8      1 +1.2359593e-08 4.67828100e+03 7.81860800e-03 7.88014700e-02
        2 -1    0    0  501    0 +0.0000000000e+00 +0.0000000000e+00 +3.5183974419e+03 3.5183974419e+03 2.5500000000e-03 0.0000e+00 1.0000e+00
       -2 -1    0    0    0  501 -0.0000000000e+00 -0.0000000000e+00 -1.5551338159e+03 1.5551338159e+03 2.5500000000e-03 0.0000e+00 -1.0000e+00
  1000011  2    1    2    0    0 -1.9100462801e+02 +5.4760073010e+02 +6.9006976111e+02 2.4239417175e+03 2.2500995194e+03 9.9008e+02 0.0000e+00
 -1000011  2    1    2    0    0 +1.9100462801e+02 -5.4760073010e+02 +1.2731938649e+03 2.6495895402e+03 2.2501006170e+03 5.8374e+02 0.0000e+00
       11  1    3    3    0    0 -7.9925039941e-02 -4.3640835302e-02 +4.5334596522e-02 1.0172522208e-01 5.1100000000e-04 0.0000e+00 1.0000e+00
  1000022  1    3    3    0    0 -1.9092470297e+02 +5.4764437094e+02 +6.9002442651e+02 2.4238399923e+03 2.2500000000e+03 0.0000e+00 0.0000e+00
      -11  1    4    4    0    0 -4.3287966370e-02 +5.9467711854e-02 +8.3026147410e-03 7.4023313038e-02 5.1100000000e-04 0.0000e+00 -1.0000e+00
  1000022  1    4    4    0    0 +1.9104791598e+02 -5.4766019781e+02 +1.2731855623e+03 2.6495155169e+03 2.2500000000e+03 0.0000e+00 0.0000e+00
<mgrwt>
<rscale>  0 0.46782812E+04</rscale>
<asrwt>0</asrwt>
<pdfrwt beam="1">  1        2 0.54129191E+00 0.46782812E+04</pdfrwt>
<pdfrwt beam="2">  1       -2 0.23925136E+00 0.46782812E+04</pdfrwt>
<totfact> 0.44040344E-02</totfact>
</mgrwt>
</event>
<event>
 8      1 +1.2359593e-08 5.12436500e+03 7.81860800e-03 7.80960400e-02
       -2 -1    0    0    0  501 -0.0000000000e+00 +0.0000000000e+00 +2.1627483285e+03 2.1627483285e+03 2.5500000000e-03 0.0000e+00 -1.0000e+00
        2 -1    0    0  501    0 +0.0000000000e+00 -0.0000000000e+00 -3.0353870164e+03 3.0353870164e+03 2.5500000000e-03 0.0000e+00 1.0000e+00
  1000011  2    1    2    0    0 +4.1487375314e+02 +1.3347542054e+01 -1.6059616720e+03 2.7954165725e+03 2.2500983388e+03 3.6912e+02 0.0000e+00
 -1000011  2    1    2    0    0 -4.1487375314e+02 -1.3347542054e+01 +7.3332298404e+02 2.4027187723e+03 2.2501103333e+03 5.3669e+02 0.0000e+00
       11  1    3    3    0    0 -7.3349689088e-02 +2.7190273773e-02 -9.4546010739e-02 1.2271388240e-01 5.1100000000e-04 0.0000e+00 1.0000e+00
  1000022  1    3    3    0    0 +4.1494710283e+02 +1.3320351781e+01 -1.6058671260e+03 2.7952938586e+03 2.2500000000e+03 0.0000e+00 0.0000e+00
      -11  1    4    4    0    0 +4.2166979826e-03 +2.1046845612e-02 +1.4522171675e-01 1.4680040254e-01 5.1100000000e-04 0.0000e+00 -1.0000e+00
  1000022  1    4    4    0    0 -4.1487796984e+02 -1.3368588900e+01 +7.3317776233e+02 2.4025719719e+03 2.2500000000e+03 0.0000e+00 0.0000e+00
<mgrwt>
<rscale>  0 0.51243646E+04</rscale>
<asrwt>0</asrwt>
<pdfrwt beam="1">  1        2 0.46698262E+00 0.51243646E+04</pdfrwt>
<pdfrwt beam="2">  1       -2 0.33273051E+00 0.51243646E+04</pdfrwt>
<totfact> 0.23790669E-02</totfact>
</mgrwt>
</event>
<event>
 8      1 +1.2359593e-08 4.52563200e+03 7.81860800e-03 7.90616500e-02
        2 -1    0    0  501    0 +0.0000000000e+00 +0.0000000000e+00 +2.8098305091e+03 2.8098305091e+03 2.5500000000e-03 0.0000e+00 1.0000e+00
       -2 -1    0    0    0  501 -0.0000000000e+00 -0.0000000000e+00 -1.8222937860e+03 1.8222937860e+03 2.5500000000e-03 0.0000e+00 -1.0000e+00
  1000011  2    1    2    0    0 +1.4232524117e+02 -1.8079701902e+02 +5.6197275669e+02 2.3306038533e+03 2.2501015322e+03 9.2801e+02 0.0000e+00
 -1000011  2    1    2    0    0 -1.4232524117e+02 +1.8079701902e+02 +4.2556396641e+02 2.3015204418e+03 2.2500994685e+03 1.4008e+02 0.0000e+00
       11  1    3    3    0    0 -3.4745403330e-02 +8.2091135277e-02 +4.7403679845e-02 1.0096319725e-01 5.1100000000e-04 0.0000e+00 1.0000e+00
  1000022  1    3    3    0    0 +1.4235998657e+02 -1.8087911016e+02 +5.6192535301e+02 2.3305028901e+03 2.2500000000e+03 0.0000e+00 0.0000e+00
      -11  1    4    4    0    0 +2.8189765473e-02 +8.4571760013e-02 -3.4818929717e-02 9.5706134556e-02 5.1100000000e-04 0.0000e+00 -1.0000e+00
  1000022  1    4    4    0    0 -1.4235343093e+02 +1.8071244726e+02 +4.2559878534e+02 2.3014247357e+03 2.2500000000e+03 0.0000e+00 0.0000e+00
<mgrwt>
<rscale>  0 0.45256322E+04</rscale>
<asrwt>0</asrwt>
<pdfrwt beam="1">  1        2 0.43228162E+00 0.45256322E+04</pdfrwt>
<pdfrwt beam="2">  1       -2 0.28035289E+00 0.45256322E+04</pdfrwt>
<totfact> 0.72255196E-02</totfact>
</mgrwt>
</event>
<event>
 8      1 +1.2359593e-08 4.88120600e+03 7.81860800e-03 7.84709800e-02
        1 -1    0    0  501    0 +0.0000000000e+00 +0.0000000000e+00 +2.5026783945e+03 2.5026783945e+03 5.0400000000e-03 0.0000e+00 1.0000e+00
       -1 -1    0    0    0  501 -0.0000000000e+00 -0.0000000000e+00 -2.3800673133e+03 2.3800673133e+03 5.0400000000e-03 0.0000e+00 -1.0000e+00
  1000011  2    1    2    0    0 +3.8295883484e+02 -6.8430167527e+02 +5.8935982653e+02 2.4546326583e+03 2.2501000489e+03 2.1393e+02 0.0000e+00
 -1000011  2    1    2    0    0 -3.8295883484e+02 +6.8430167527e+02 -4.6674874535e+02 2.4281130494e+03 2.2501005172e+03 1.0415e+03 0.0000e+00
       11  1    3    3    0    0 -5.0427004144e-02 -1.6679000188e-02 +9.8865116994e-02 1.1223031747e-01 5.1100000000e-04 0.0000e+00 1.0000e+00
  1000022  1    3    3    0    0 +3.8300926184e+02 -6.8428499627e+02 +5.8926096142e+02 2.4545204280e+03 2.2500000000e+03 0.0000e+00 0.0000e+00
      -11  1    4    4    0    0 -8.7184123683e-02 +3.4333665616e-02 -9.7665434811e-02 1.3534648029e-01 5.1100000000e-04 0.0000e+00 -1.0000e+00
  1000022  1    4    4    0    0 -3.8287165071e+02 +6.8426734161e+02 -4.6665107992e+02 2.4279777030e+03 2.2500000000e+03 0.0000e+00 0.0000e+00
<mgrwt>
<rscale>  0 0.48812060E+04</rscale>
<asrwt>0</asrwt>
<pdfrwt beam="1">  1        1 0.38502745E+00 0.48812060E+04</pdfrwt>
<pdfrwt beam="2">  1       -1 0.36616420E+00 0.48812060E+04</pdfrwt>
<totfact> 0.11919932E-02</totfact>
</mgrwt>
</event>
<event>
 8      1 +1.2359593e-08 4.91466300e+03 7.81860800e-03 7.84180800e-02
       -2 -1    0    0    0  501 -0.0000000000e+00 +0.0000000000e+00 +1.4583457032e+03 1.4583457032e+03 2.5500000000e-03 0.0000e+00 -1.0000e+00
        2 -1    0    0  501    0 +0.0000000000e+00 -0.0000000000e+00 -4.1406353914e+03 4.1406353914e+03 2.5500000000e-03 0.0000e+00 1.0000e+00
  1000011  2    1    2    0    0 -6.2412111713e+02 +7.4543419128e+02 -1.1427209902e+03 2.7044317141e+03 2.2500978495e+03 5.3189e+02 0.0000e+00
 -1000011  2    1    2    0    0 +6.2412111713e+02 -7.4543419128e+02 -1.5395686981e+03 2.8945493805e+03 2.2500988951e+03 2.1785e+03 0.0000e+00
       11  1    3    3    0    0 -8.5653929434e-02 +1.0539833435e-01 -1.5239996524e-02 1.3666719728e-01 5.1100000000e-04 0.0000e+00 1.0000e+00
  1000022  1    3    3    0    0 -6.2403546320e+02 +7.4532879295e+02 -1.1427057502e+03 2.7042950469e+03 2.2500000000e+03 0.0000e+00 0.0000e+00
      -11  1    4    4    0    0 +8.6529802417e-02 +4.6737817695e-02 -5.3588523913e-02 1.1199920105e-01 5.1100000000e-04 0.0000e+00 -1.0000e+00
  1000022  1    4    4    0    0 +6.2403458732e+02 -7.4548092910e+02 -1.5395151096e+03 2.8944373813e+03 2.2500000000e+03 0.0000e+00 0.0000e+00
<mgrwt>
<rscale>  0 0.49146629E+04</rscale>
<asrwt>0</asrwt>
<pdfrwt beam="1">  1        2 0.63702082E+00 0.49146629E+04</pdfrwt>
<pdfrwt beam="2">  1       -2 0.22436088E+00 0.49146629E+04</pdfrwt>
<totfact> 0.17678778E-02</totfact>
</mgrwt>
</event>
<event>
 8      1 +1.2359593e-08 5.32488500e+03 7.81860800e-03 7.78025600e-02
       -2 -1    0    0    0  501 -0.0000000000e+00 +0.0000000000e+00 +2.8543308279e+03 2.8543308279e+03 2.5500000000e-03 0.0000e+00 -1.0000e+00
        2 -1    0    0  501    0 +0.0000000000e+00 -0.0000000000e+00 -2.4834544989e+03 2.4834544989e+03 2.5500000000e-03 0.0000e+00 1.0000e+00
  1000011  2    1    2    0    0 +1.9832265208e+02 +7.6279279109e+01 +1.5961504935e+03 2.7669103507e+03 2.2500991284e+03 1.9089e+03 0.0000e+00
 -1000011  2    1    2    0    0 -1.9832265208e+02 -7.6279279109e+01 -1.2252741645e+03 2.5708749761e+03 2.2501002115e+03 1.0049e+03 0.0000e+00
       11  1    3    3    0    0 -4.6594822729e-02 +8.3717065224e-02 +9.0412261665e-02 1.3173557815e-01 5.1100000000e-04 0.0000e+00 1.0000e+00
  1000022  1    3    3    0    0 +1.9836924691e+02 +7.6195562044e+01 +1.5960600813e+03 2.7667786151e+03 2.2500000000e+03 0.0000e+00 0.0000e+00
      -11  1    4    4    0    0 -9.1976196756e-04 -9.9484492297e-02 -8.7158606530e-02 1.3226826390e-01 5.1100000000e-04 0.0000e+00 -1.0000e+00
  1000022  1    4    4    0    0 -1.9832173232e+02 -7.6179794617e+01 -1.2251870059e+03 2.5707427079e+03 2.2500000000e+03 0.0000e+00 0.0000e+00
<mgrwt>
<rscale>  0 0.53248853E+04</rscale>
<asrwt>0</asrwt>
<pdfrwt beam="1">  1        2 0.38206992E+00 0.53248853E+04</pdfrwt>
<pdfrwt beam="2">  1       -2 0.43912782E+00 0.53248853E+04</pdfrwt>
<totfact> 0.10373008E-02</totfact>
</mgrwt>
</event>
<event>
 8      1 +1.2359593e-08 5.25784500e+03 7.81860800e-03 7.78991800e-02
       -2 -1    0    0    0  501 -0.0000000000e+00 +0.0000000000e+00 +1.5490068720e+03 1.5490068720e+03 2.5500000000e-03 0.0000e+00 -1.0000e+00
        2 -1    0    0  501    0 +0.0000000000e+00 -0.0000000000e+00 -4.4617188666e+03 4.4617188666e+03 2.5500000000e-03 0.0000e+00 1.0000e+00
  1000011  2    1    2    0    0 -8.0445202653e+02 +7.0413519986e+02 -2.4164390635e+03 3.4706028735e+03 2.2501015788e+03 1.4031e+02 0.0000e+00
 -1000011  2    1    2    0    0 +8.0445202653e+02 -7.0413519986e+02 -4.9627293105e+02 2.5401228651e+03 2.2501084208e+03 9.7542e+02 0.0000e+00
       11  1    3    3    0    0 -7.3022948218e-02 -4.2984183022e-02 -1.8209691674e-01 2.0084705336e-01 5.1100000000e-04 0.0000e+00 1.0000e+00
  1000022  1    3    3    0    0 -8.0437900358e+02 +7.0417818404e+02 -2.4162569666e+03 3.4704020264e+03 2.2500000000e+03 0.0000e+00 0.0000e+00
      -11  1    4    4    0    0 +1.4505752319e-01 -7.0528957584e-02 -6.6800448318e-02 1.7458115473e-01 5.1100000000e-04 0.0000e+00 -1.0000e+00
  1000022  1    4    4    0    0 +8.0430696901e+02 -7.0406467090e+02 -4.9620613060e+02 2.5399482840e+03 2.2500000000e+03 0.0000e+00 0.0000e+00
<mgrwt>
<rscale>  0 0.52578449E+04</rscale>
<asrwt>0</asrwt>
<pdfrwt beam="1">  1        2 0.68641828E+00 0.52578449E+04</pdfrwt>
<pdfrwt beam="2">  1       -2 0.23830875E+00 0.52578449E+04</pdfrwt>
<totfact> 0.71870779E-03</totfact>
</mgrwt>
</event>
<event>
 8      1 +1.2359593e-08 5.22665200e+03 7.81860800e-03 7.79446400e-02
        2 -1    0    0  501    0 +0.0000000000e+00 +0.0000000000e+00 +3.8151310926e+03 3.8151310926e+03 2.5500000000e-03 0.0000e+00 1.0000e+00
       -2 -1    0    0    0  501 -0.0000000000e+00 -0.0000000000e+00 -1.7901017706e+03 1.7901017706e+03 2.5500000000e-03 0.0000e+00 -1.0000e+00
  1000011  2    1    2    0    0 +6.1658039918e+01 -2.1900295488e+02 +2.4168500385e+03 3.3099679154e+03 2.2501021053e+03 2.1110e+02 0.0000e+00
 -1000011  2    1    2    0    0 -6.1658039918e+01 +2.1900295488e+02 -3.9182071654e+02 2.2952649478e+03 2.2501008196e+03 5.6646e+01 0.0000e+00
       11  1    3    3    0    0 -7.9881428420e-02 -6.8872993106e-02 +9.6836809229e-02 1.4318575391e-01 5.1100000000e-04 0.0000e+00 1.0000e+00
  1000022  1    3    3    0    0 +6.1737921347e+01 -2.1893408189e+02 +2.4167532017e+03 3.3098247297e+03 2.2500000000e+03 0.0000e+00 0.0000e+00
      -11  1    4    4    0    0 -7.0963364966e-02 +2.6444954064e-02 -9.1678905985e-02 1.1891348662e-01 5.1100000000e-04 0.0000e+00 -1.0000e+00
  1000022  1    4    4    0    0 -6.1587076553e+01 +2.1897650993e+02 -3.9172903764e+02 2.2951460343e+03 2.2500000000e+03 0.0000e+00 0.0000e+00
<mgrwt>
<rscale>  0 0.52266521E+04</rscale>
<asrwt>0</asrwt>
<pdfrwt beam="1">  1        2 0.58694324E+00 0.52266521E+04</pdfrwt>
<pdfrwt beam="2">  1       -2 0.27540027E+00 0.52266521E+04</pdfrwt>
<totfact> 0.15307416E-02</totfact>
</mgrwt>
</event>
<event>
 8      1 +1.2359593e-08 4.61113300e+03 7.81860800e-03 7.89146400e-02
       -3 -1    0    0    0  501 -0.0000000000e+00 +0.0000000000e+00 +2.8889468097e+03 2.8889468115e+03 1.0100000000e-01 0.0000e+00 -1.0000e+00
        3 -1    0    0  501    0 +0.0000000000e+00 -0.0000000000e+00 -1.8399913708e+03 1.8399913735e+03 1.0100000000e-01 0.0000e+00 1.0000e+00
  1000011  2    1    2    0    0 +5.0095204960e+02 +2.1471468670e+01 +4.8787866309e+02 2.3563504625e+03 2.2500995383e+03 5.3756e+02 0.0000e+00
 -1000011  2    1    2    0    0 -5.0095204960e+02 -2.1471468670e+01 +5.6107677589e+02 2.3725877225e+03 2.2501003028e+03 6.3562e+01 0.0000e+00
       11  1    3    3    0    0 +3.6513342172e-02 +9.5488949670e-02 -6.1098364400e-03 1.0241559656e-01 5.1100000000e-04 0.0000e+00 1.0000e+00
  1000022  1    3    3    0    0 +5.0091553626e+02 +2.1375979721e+01 +4.8788477292e+02 2.3562480469e+03 2.2500000000e+03 0.0000e+00 0.0000e+00
      -11  1    4    4    0    0 -3.4835797542e-02 +3.3321311824e-02 +1.2178000373e-01 1.3097508359e-01 5.1100000000e-04 0.0000e+00 -1.0000e+00
  1000022  1    4    4    0    0 -5.0091721380e+02 -2.1504789982e+01 +5.6095499588e+02 2.3724567474e+03 2.2500000000e+03 0.0000e+00 0.0000e+00
<mgrwt>
<rscale>  0 0.46111331E+04</rscale>
<asrwt>0</asrwt>
<pdfrwt beam="1">  1        3 0.28307559E+00 0.46111331E+04</pdfrwt>
<pdfrwt beam="2">  1       -3 0.44445336E+00 0.46111331E+04</pdfrwt>
<totfact> 0.55825623E-04</totfact>
</mgrwt>
</event>
<event>
 8      1 +1.2359593e-08 4.83114600e+03 7.81860800e-03 7.85509600e-02
       -2 -1    0    0    0  501 -0.0000000000e+00 +0.0000000000e+00 +1.5873208902e+03 1.5873208902e+03 2.5500000000e-03 0.0000e+00 -1.0000e+00
        2 -1    0    0  501    0 +0.0000000000e+00 -0.0000000000e+00 -3.6760001684e+03 3.6760001684e+03 2.5500000000e-03 0.0000e+00 1.0000e+00
  1000011  2    1    2    0    0 -1.9077267950e+02 +7.7037479241e+02 -6.3354362086e+02 2.4686439736e+03 2.2501008894e+03 6.5237e+02 0.0000e+00
 -1000011  2    1    2    0    0 +1.9077267950e+02 -7.7037479241e+02 -1.4551356573e+03 2.7946770851e+03 2.2500952631e+03 4.1960e+02 0.0000e+00
       11  1    3    3    0    0 -4.3370792119e-02 +1.3537698154e-01 -3.0706703132e-02 1.4543422943e-01 5.1100000000e-04 0.0000e+00 1.0000e+00
  1000022  1    3    3    0    0 -1.9072930871e+02 +7.7023941543e+02 -6.3351291415e+02 2.4684985393e+03 2.2500000000e+03 0.0000e+00 0.0000e+00
      -11  1    4    4    0    0 +2.5887933519e-02 -1.2086234245e-01 -1.3042910619e-01 1.7969391629e-01 5.1100000000e-04 0.0000e+00 -1.0000e+00
  1000022  1    4    4    0    0 +1.9074679156e+02 -7.7025393007e+02 -1.4550052282e+03 2.7944973912e+03 2.2500000000e+03 0.0000e+00 0.0000e+00
<mgrwt>
<rscale>  0 0.48311456E+04</rscale>
<asrwt>0</asrwt>
<pdfrwt beam="1">  1        2 0.56553848E+00 0.48311456E+04</pdfrwt>
<pdfrwt beam="2">  1       -2 0.24420322E+00 0.48311456E+04</pdfrwt>
<totfact> 0.31212973E-02</totfact>
</mgrwt>
</event>
<event>
 8      1 +1.2359593e-08 5.27125700e+03 7.81860800e-03 7.78797300e-02
       -2 -1    0    0    0  501 -0.0000000000e+00 +0.0000000000e+00 +5.0479741615e+03 5.0479741615e+03 2.5500000000e-03 0.0000e+00 -1.0000e+00
        2 -1    0    0  501    0 +0.0000000000e+00 -0.0000000000e+00 -1.3761038568e+03 1.3761038568e+03 2.5500000000e-03 0.0000e+00 1.0000e+00
  1000011  2    1    2    0    0 -1.1442343006e+00 +4.0113266211e+02 +2.3636952377e+02 2.2977663498e+03 2.2501002032e+03 2.3468e+02 0.0000e+00
 -1000011  2    1    2    0    0 +1.1442343006e+00 -4.0113266211e+02 +3.4355007809e+03 4.1263116685e+03 2.2500830314e+03 1.8668e+02 0.0000e+00
       11  1    3    3    0    0 -2.1537028992e-03 -4.9808795368e-02 -6.5914993890e-02 8.2647454414e-02 5.1100000000e-04 0.0000e+00 1.0000e+00
  1000022  1    3    3    0    0 -1.1420805977e+00 +4.0118247091e+02 +2.3643543876e+02 2.2976837023e+03 2.2500000000e+03 0.0000e+00 0.0000e+00
      -11  1    4    4    0    0 +7.0111354784e-02 -5.9219543746e-02 +1.2317848318e-01 1.5360910011e-01 5.1100000000e-04 0.0000e+00 -1.0000e+00
  1000022  1    4    4    0    0 +1.0741229458e+00 -4.0107344257e+02 +3.4353776024e+03 4.1261580594e+03 2.2500000000e+03 0.0000e+00 0.0000e+00
<mgrwt>
<rscale>  0 0.52712567E+04</rscale>
<asrwt>0</asrwt>
<pdfrwt beam="1">  1        2 0.21170829E+00 0.52712567E+04</pdfrwt>
<pdfrwt beam="2">  1       -2 0.77661139E+00 0.52712567E+04</pdfrwt>
<totfact> 0.11367454E-03</totfact>
</mgrwt>
</event>
<event>
 8      1 +1.2359593e-08 4.60211100e+03 7.81860800e-03 7.89300000e-02
       -2 -1    0    0    0  501 -0.0000000000e+00 +0.0000000000e+00 +1.6206262406e+03 1.6206262406e+03 2.5500000000e-03 0.0000e+00 -1.0000e+00
        2 -1    0    0  501    0 +0.0000000000e+00 -0.0000000000e+00 -3.2671674077e+03 3.2671674077e+03 2.5500000000e-03 0.0000e+00 1.0000e+00
  1000011  2    1    2    0    0 +2.9245087504e+01 +4.2368162390e+02 -5.8230398956e+02 2.3627367829e+03 2.2501301685e+03 1.2307e+03 0.0000e+00
 -1000011  2    1    2    0    0 -2.9245087504e+01 -4.2368162390e+02 -1.0642371776e+03 2.5250568655e+03 2.2501000000e+03 6.8474e+03 0.0000e+00
       11  1    3    3    0    0 +9.3189682019e-02 +3.2585808920e-02 -1.2956225359e-01 1.6288888897e-01 5.1100000000e-04 0.0000e+00 1.0000e+00
  1000022  1    3    3    0    0 +2.9151897822e+01 +4.2364903809e+02 -5.8217442730e+02 2.3625738940e+03 2.2500000000e+03 0.0000e+00 0.0000e+00
      -11  1    4    4    0    0 +2.3674684576e-02 -1.1520995597e-01 -3.3574395486e-02 1.2231649637e-01 5.1100000000e-04 0.0000e+00 -1.0000e+00
  1000022  1    4    4    0    0 -2.9268762189e+01 -4.2356641394e+02 -1.0642036032e+03 2.5249345490e+03 2.2500000000e+03 0.0000e+00 0.0000e+00
<mgrwt>
<rscale>  0 0.46021114E+04</rscale>
<asrwt>0</asrwt>
<pdfrwt beam="1">  1        2 0.50264114E+00 0.46021114E+04</pdfrwt>
<pdfrwt beam="2">  1       -2 0.24932711E+00 0.46021114E+04</pdfrwt>
<totfact> 0.57040635E-02</totfact>
</mgrwt>
</event>
<event>
 8      1 +1.2359593e-08 5.02471700e+03 7.81860800e-03 7.82470600e-02
       -2 -1    0    0    0  501 -0.0000000000e+00 +0.0000000000e+00 +3.1515283064e+03 3.1515283064e+03 2.5500000000e-03 0.0000e+00 -1.0000e+00
        2 -1    0    0  501    0 +0.0000000000e+00 -0.0000000000e+00 -2.0028201717e+03 2.0028201717e+03 2.5500000000e-03 0.0000e+00 1.0000e+00
  1000011  2    1    2    0    0 -7.7572538303e+02 -2.2843585499e+02 +1.3656573503e+03 2.7535234387e+03 2.2500974467e+03 8.5433e+01 0.0000e+00
 -1000011  2    1    2    0    0 +7.7572538303e+02 +2.2843585499e+02 -2.1694921570e+02 2.4008250394e+03 2.2501024639e+03 5.6685e+01 0.0000e+00
       11  1    3    3    0    0 -1.1425824457e-02 -7.9937721029e-02 -1.4862474334e-02 8.2108114649e-02 5.1100000000e-04 0.0000e+00 1.0000e+00
  1000022  1    3    3    0    0 -7.7571395720e+02 -2.2835591727e+02 +1.3656722128e+03 2.7534413306e+03 2.2500000000e+03 0.0000e+00 0.0000e+00
      -11  1    4    4    0    0 +1.3165473968e-01 -2.4529141081e-02 +1.5586868684e-02 1.3482529531e-01 5.1100000000e-04 0.0000e+00 -1.0000e+00
  1000022  1    4    4    0    0 +7.7559372829e+02 +2.2846038413e+02 -2.1696480257e+02 2.4006902141e+03 2.2500000000e+03 0.0000e+00 0.0000e+00
<mgrwt>
<rscale>  0 0.50247167E+04</rscale>
<asrwt>0</asrwt>
<pdfrwt beam="1">  1        2 0.30812618E+00 0.50247167E+04</pdfrwt>
<pdfrwt beam="2">  1       -2 0.48485050E+00 0.50247167E+04</pdfrwt>
<totfact> 0.99974211E-03</totfact>
</mgrwt>
</event>
<event>
 8      1 +1.2359593e-08 5.12056600e+03 7.81860800e-03 7.81017300e-02
        2 -1    0    0  501    0 +0.0000000000e+00 +0.0000000000e+00 +2.2043063295e+03 2.2043063295e+03 2.5500000000e-03 0.0000e+00 1.0000e+00
       -2 -1    0    0    0  501 -0.0000000000e+00 -0.0000000000e+00 -2.9737467085e+03 2.9737467085e+03 2.5500000000e-03 0.0000e+00 -1.0000e+00
  1000011  2    1    2    0    0 +1.1515212757e+03 -2.1045229146e+02 -3.1796232962e+01 2.5365837059e+03 2.2501009936e+03 4.1453e+02 0.0000e+00
 -1000011  2    1    2    0    0 -1.1515212757e+03 +2.1045229146e+02 -7.3764414601e+02 2.6414693321e+03 2.2500999824e+03 1.3310e+03 0.0000e+00
       11  1    3    3    0    0 +2.4222156346e-02 -7.1469377477e-02 +7.3847137946e-02 1.0558525160e-01 5.1100000000e-04 0.0000e+00 1.0000e+00
  1000022  1    3    3    0    0 +1.1514970536e+03 -2.1038082208e+02 -3.1870080100e+01 2.5364781207e+03 2.2500000000e+03 0.0000e+00 0.0000e+00
      -11  1    4    4    0    0 +3.2039134039e-02 -4.1560417842e-02 -6.9901992529e-02 8.7408946814e-02 5.1100000000e-04 0.0000e+00 -1.0000e+00
  1000022  1    4    4    0    0 -1.1515533148e+03 +2.1049385187e+02 -7.3757424402e+02 2.6413819232e+03 2.2500000000e+03 0.0000e+00 0.0000e+00
<mgrwt>
<rscale>  0 0.51205659E+04</rscale>
<asrwt>0</asrwt>
<pdfrwt beam="1">  1        2 0.33912405E+00 0.51205659E+04</pdfrwt>
<pdfrwt beam="2">  1       -2 0.45749950E+00 0.51205659E+04</pdfrwt>
<totfact> 0.11508688E-02</totfact>
</mgrwt>
</event>
<event>
 8      1 +1.2359593e-08 5.03652300e+03 7.81860800e-03 7.82289800e-02
        2 -1    0    0  501    0 +0.0000000000e+00 +0.0000000000e+00 +3.6312384589e+03 3.6312384589e+03 2.5500000000e-03 0.0000e+00 -1.0000e+00
       -2 -1    0    0    0  501 -0.0000000000e+00 -0.0000000000e+00 -1.7464128248e+03 1.7464128248e+03 2.5500000000e-03 0.0000e+00 1.0000e+00
  1000011  2    1    2    0    0 -4.9743602137e+02 +1.0151756717e+03 +9.1510724148e+02 2.6792558933e+03 2.2501036951e+03 5.8869e+02 0.0000e+00
 -1000011  2    1    2    0    0 +4.9743602137e+02 -1.0151756717e+03 +9.6971839262e+02 2.6983953903e+03 2.2501021492e+03 1.2566e+03 0.0000e+00
       11  1    3    3    0    0 -9.6287822193e-02 +5.3100223916e-02 -3.1400147205e-02 1.1435562250e-01 5.1100000000e-04 0.0000e+00 1.0000e+00
  1000022  1    3    3    0    0 -4.9733973354e+02 +1.0151225715e+03 +9.1513864163e+02 2.6791415377e+03 2.2500000000e+03 0.0000e+00 0.0000e+00
      -11  1    4    4    0    0 +5.2996336170e-02 +2.1510466907e-02 +1.1451894245e-01 1.2800844077e-01 5.1100000000e-04 0.0000e+00 -1.0000e+00
  1000022  1    4    4    0    0 +4.9738302503e+02 -1.0151971822e+03 +9.6960387368e+02 2.6982673819e+03 2.2500000000e+03 0.0000e+00 0.0000e+00
<mgrwt>
<rscale>  0 0.50365232E+04</rscale>
<asrwt>0</asrwt>
<pdfrwt beam="1">  1        2 0.55865206E+00 0.50365232E+04</pdfrwt>
<pdfrwt beam="2">  1       -2 0.26867890E+00 0.50365232E+04</pdfrwt>
<totfact> 0.23433008E-02</totfact>
</mgrwt>
</event>
<event>
 8      1 +1.2359593e-08 4.73851700e+03 7.81860800e-03 7.87016000e-02
        2 -1    0    0  501    0 +0.0000000000e+00 +0.0000000000e+00 +2.5774352615e+03 2.5774352615e+03 2.5500000000e-03 0.0000e+00 1.0000e+00
       -2 -1    0    0    0  501 -0.0000000000e+00 -0.0000000000e+00 -2.1778957163e+03 2.1778957163e+03 2.5500000000e-03 0.0000e+00 -1.0000e+00
  1000011  2    1    2    0    0 +2.0573625666e+02 -6.9746440474e+02 +5.2088934092e+01 2.3652575537e+03 2.2500991167e+03 1.0072e+02 0.0000e+00
 -1000011  2    1    2    0    0 -2.0573625666e+02 +6.9746440474e+02 +3.4745061105e+02 2.3900734241e+03 2.2500988961e+03 4.4401e+01 0.0000e+00
       11  1    3    3    0    0 -2.5089858238e-02 -5.3574844602e-02 +9.2671363362e-02 1.0994547532e-01 5.1100000000e-04 0.0000e+00 1.0000e+00
  1000022  1    3    3    0    0 +2.0576134652e+02 -6.9741082989e+02 +5.1996262729e+01 2.3651476082e+03 2.2500000000e+03 0.0000e+00 0.0000e+00
      -11  1    4    4    0    0 +9.5242080036e-03 -6.9646146924e-02 -8.1751095326e-03 7.0769975298e-02 5.1100000000e-04 0.0000e+00 -1.0000e+00
  1000022  1    4    4    0    0 -2.0574578087e+02 +6.9753405089e+02 +3.4745878616e+02 2.3900026541e+03 2.2500000000e+03 0.0000e+00 0.0000e+00
<mgrwt>
<rscale>  0 0.47385167E+04</rscale>
<asrwt>0</asrwt>
<pdfrwt beam="1">  1        2 0.39652850E+00 0.47385167E+04</pdfrwt>
<pdfrwt beam="2">  1       -2 0.33506088E+00 0.47385167E+04</pdfrwt>
<totfact> 0.45019976E-02</totfact>
</mgrwt>
</event>
<event>
 8      1 +1.2359593e-08 4.70043300e+03 7.81860800e-03 7.87645700e-02
        2 -1    0    0  501    0 +0.0000000000e+00 +0.0000000000e+00 +2.5575616958e+03 2.5575616958e+03 2.5500000000e-03 0.0000e+00 1.0000e+00
       -2 -1    0    0    0  501 -0.0000000000e+00 -0.0000000000e+00 -2.1596806910e+03 2.1596806910e+03 2.5500000000e-03 0.0000e+00 -1.0000e+00
  1000011  2    1    2    0    0 +4.1913109830e+02 -2.1397878348e+02 -2.9179674110e+02 2.3172293407e+03 2.2500997049e+03 8.9317e+02 0.0000e+00
 -1000011  2    1    2    0    0 -4.1913109830e+02 +2.1397878348e+02 +6.8967774591e+02 2.4000130462e+03 2.2500998714e+03 4.9198e+02 0.0000e+00
       11  1    3    3    0    0 -2.5336816747e-02 +6.8882622640e-02 +3.5266999571e-02 8.1429674336e-02 5.1100000000e-04 0.0000e+00 1.0000e+00
  1000022  1    3    3    0    0 +4.1915643512e+02 -2.1404766610e+02 -2.9183200810e+02 2.3171479110e+03 2.2500000000e+03 0.0000e+00 0.0000e+00
      -11  1    4    4    0    0 -1.0520130243e-01 +6.3316007783e-02 +4.0225246868e-02 1.2920743781e-01 5.1100000000e-04 0.0000e+00 -1.0000e+00
  1000022  1    4    4    0    0 -4.1902589700e+02 +2.1391546747e+02 +6.8963752066e+02 2.3998838387e+03 2.2500000000e+03 0.0000e+00 0.0000e+00
<mgrwt>
<rscale>  0 0.47004326E+04</rscale>
<asrwt>0</asrwt>
<pdfrwt beam="1">  1        2 0.39347103E+00 0.47004326E+04</pdfrwt>
<pdfrwt beam="2">  1       -2 0.33225857E+00 0.47004326E+04</pdfrwt>
<totfact> 0.48286066E-02</totfact>
</mgrwt>
</event>
<event>
 8      1 +1.2359593e-08 4.64250300e+03 7.81860800e-03 7.88615300e-02
        2 -1    0    0  501    0 +0.0000000000e+00 +0.0000000000e+00 +2.0193958232e+03 2.0193958232e+03 2.5500000000e-03 0.0000e+00 1.0000e+00
       -2 -1    0    0    0  501 -0.0000000000e+00 -0.0000000000e+00 -2.6682276288e+03 2.6682276288e+03 2.5500000000e-03 0.0000e+00 -1.0000e+00
  1000011  2    1    2    0    0 +5.7668820343e+01 -4.8525610302e+02 -2.7524877771e+01 2.3027203518e+03 2.2501031580e+03 4.5569e+02 0.0000e+00
 -1000011  2    1    2    0    0 -5.7668820343e+01 +4.8525610302e+02 -6.2130692788e+02 2.3849031002e+03 2.2500980690e+03 3.1440e+02 0.0000e+00
       11  1    3    3    0    0 -8.5873770768e-02 -6.9795563686e-02 -2.5962625123e-02 1.1366636986e-01 5.1100000000e-04 0.0000e+00 1.0000e+00
  1000022  1    3    3    0    0 +5.7754694113e+01 -4.8518630745e+02 -2.7498915145e+01 2.3026066855e+03 2.2500000000e+03 0.0000e+00 0.0000e+00
      -11  1    4    4    0    0 +3.0117987653e-02 +6.9503345372e-02 -1.1183082806e-01 1.3507110244e-01 5.1100000000e-04 0.0000e+00 -1.0000e+00
  1000022  1    4    4    0    0 -5.7698938330e+01 +4.8518659967e+02 -6.2119509705e+02 2.3847680291e+03 2.2500000000e+03 0.0000e+00 0.0000e+00
<mgrwt>
<rscale>  0 0.46425027E+04</rscale>
<asrwt>0</asrwt>
<pdfrwt beam="1">  1        2 0.31067628E+00 0.46425027E+04</pdfrwt>
<pdfrwt beam="2">  1       -2 0.41049656E+00 0.46425027E+04</pdfrwt>
<totfact> 0.30934822E-02</totfact>
</mgrwt>
</event>
<event>
 8      1 +1.2359593e-08 5.32356400e+03 7.81860800e-03 7.78044500e-02
       -2 -1    0    0    0  501 -0.0000000000e+00 +0.0000000000e+00 +2.9727492542e+03 2.9727492542e+03 2.5500000000e-03 0.0000e+00 -1.0000e+00
        2 -1    0    0  501    0 +0.0000000000e+00 -0.0000000000e+00 -2.3833438154e+03 2.3833438154e+03 2.5500000000e-03 0.0000e+00 1.0000e+00
  1000011  2    1    2    0    0 +3.0202973042e+02 -1.3696127895e+03 +5.8612526874e+01 2.6520665022e+03 2.2501022537e+03 1.0869e+03 0.0000e+00
 -1000011  2    1    2    0    0 -3.0202973042e+02 +1.3696127895e+03 +5.3079291190e+02 2.7040265674e+03 2.2501016445e+03 3.3902e+02 0.0000e+00
       11  1    3    3    0    0 -1.0147483085e-02 -3.5684723844e-02 -9.4935685171e-02 1.0192848526e-01 5.1100000000e-04 0.0000e+00 1.0000e+00
  1000022  1    3    3    0    0 +3.0203987791e+02 -1.3695771048e+03 +5.8707462559e+01 2.6519645737e+03 2.2500000000e+03 0.0000e+00 0.0000e+00
      -11  1    4    4    0    0 -6.2754823737e-02 +1.6312334637e-01 +3.0187190429e-03 1.7480494174e-01 5.1100000000e-04 0.0000e+00 -1.0000e+00
  1000022  1    4    4    0    0 -3.0196697560e+02 +1.3694496662e+03 +5.3078989318e+02 2.7038517624e+03 2.2500000000e+03 0.0000e+00 0.0000e+00
<mgrwt>
<rscale>  0 0.53235641E+04</rscale>
<asrwt>0</asrwt>
<pdfrwt beam="1">  1        2 0.36666828E+00 0.53235641E+04</pdfrwt>
<pdfrwt beam="2">  1       -2 0.45734604E+00 0.53235641E+04</pdfrwt>
<totfact> 0.89886338E-03</totfact>
</mgrwt>
</event>
<event>
 8      1 +1.2359593e-08 5.06684100e+03 7.81860800e-03 7.81827800e-02
       -2 -1    0    0    0  501 -0.0000000000e+00 +0.0000000000e+00 +2.1076637906e+03 2.1076637906e+03 2.5500000000e-03 0.0000e+00 -1.0000e+00
        2 -1    0    0  501    0 +0.0000000000e+00 -0.0000000000e+00 -3.0451817366e+03 3.0451817366e+03 2.5500000000e-03 0.0000e+00 1.0000e+00
  1000011  2    1    2    0    0 +8.0007445535e+02 +7.8880093235e+02 -1.5876066149e+02 2.5200242403e+03 2.2501091482e+03 4.6317e+02 0.0000e+00
 -1000011  2    1    2    0    0 -8.0007445535e+02 -7.8880093235e+02 -7.7875728451e+02 2.6328212869e+03 2.2501019922e+03 2.2271e+03 0.0000e+00
       11  1    3    3    0    0 +1.2019668904e-01 -7.7199616693e-03 -6.6034957515e-02 1.3735981345e-01 5.1100000000e-04 0.0000e+00 1.0000e+00
  1000022  1    3    3    0    0 +7.9995425866e+02 +7.8880865231e+02 -1.5869462653e+02 2.5198868805e+03 2.2500000000e+03 0.0000e+00 0.0000e+00
      -11  1    4    4    0    0 +2.0514522317e-02 -1.1148916577e-01 -7.7256357670e-02 1.3718412880e-01 5.1100000000e-04 0.0000e+00 -1.0000e+00
  1000022  1    4    4    0    0 -8.0009496988e+02 -7.8868944318e+02 -7.7868002816e+02 2.6326841027e+03 2.2500000000e+03 0.0000e+00 0.0000e+00
<mgrwt>
<rscale>  0 0.50668409E+04</rscale>
<asrwt>0</asrwt>
<pdfrwt beam="1">  1        2 0.46848950E+00 0.50668409E+04</pdfrwt>
<pdfrwt beam="2">  1       -2 0.32425597E+00 0.50668409E+04</pdfrwt>
<totfact> 0.26596691E-02</totfact>
</mgrwt>
</event>
<event>
 8      1 +1.2359593e-08 4.61303500e+03 7.81860800e-03 7.89114100e-02
       -2 -1    0    0    0  501 -0.0000000000e+00 +0.0000000000e+00 +1.6714856557e+03 1.6714856557e+03 2.5500000000e-03 0.0000e+00 -1.0000e+00
        2 -1    0    0  501    0 +0.0000000000e+00 -0.0000000000e+00 -3.1828115783e+03 3.1828115783e+03 2.5500000000e-03 0.0000e+00 1.0000e+00
  1000011  2    1    2    0    0 -4.1351380493e+02 +2.1929096260e+02 -5.5056837400e+02 2.3632974398e+03 2.2501037891e+03 7.1492e+02 0.0000e+00
 -1000011  2    1    2    0    0 +4.1351380493e+02 -2.1929096260e+02 -9.6075754857e+02 2.4909997941e+03 2.2500983787e+03 9.8764e+02 0.0000e+00
       11  1    3    3    0    0 +5.6649837697e-02 +4.0794597700e-02 +4.3892372907e-02 8.2463352361e-02 5.1100000000e-04 0.0000e+00 1.0000e+00
  1000022  1    3    3    0    0 -4.1357045477e+02 +2.1925016800e+02 -5.5061226638e+02 2.3632149765e+03 2.2500000000e+03 0.0000e+00 0.0000e+00
      -11  1    4    4    0    0 +9.4167197633e-02 -1.7397743903e-02 +2.0814752304e-02 9.7998253168e-02 5.1100000000e-04 0.0000e+00 -1.0000e+00
  1000022  1    4    4    0    0 +4.1341963773e+02 -2.1927356486e+02 -9.6077836332e+02 2.4909017958e+03 2.2500000000e+03 0.0000e+00 0.0000e+00
<mgrwt>
<rscale>  0 0.46130354E+04</rscale>
<asrwt>0</asrwt>
<pdfrwt beam="1">  1        2 0.48966332E+00 0.46130354E+04</pdfrwt>
<pdfrwt beam="2">  1       -2 0.25715164E+00 0.46130354E+04</pdfrwt>
<totfact> 0.57973200E-02</totfact>
</mgrwt>
</event>
<event>
 8      1 +1.2359593e-08 4.80778200e+03 7.81860800e-03 7.85886300e-02
        2 -1    0    0  501    0 +0.0000000000e+00 +0.0000000000e+00 +4.5296200897e+03 4.5296200897e+03 2.5500000000e-03 0.0000e+00 1.0000e+00
       -2 -1    0    0    0  501 -0.0000000000e+00 -0.0000000000e+00 -1.2757563420e+03 1.2757563420e+03 2.5500000000e-03 0.0000e+00 -1.0000e+00
  1000011  2    1    2    0    0 +6.6729795346e+02 +5.1722445322e+02 +1.6923775683e+03 2.9393707311e+03 2.2501001684e+03 3.5410e+02 0.0000e+00
 -1000011  2    1    2    0    0 -6.6729795346e+02 -5.1722445322e+02 +1.5614861794e+03 2.8660057006e+03 2.2500981965e+03 4.9829e+02 0.0000e+00
       11  1    3    3    0    0 +4.9601512693e-02 +1.2337097397e-01 +1.1573779740e-01 1.7628444585e-01 5.1100000000e-04 0.0000e+00 1.0000e+00
  1000022  1    3    3    0    0 +6.6724835195e+02 +5.1710108225e+02 +1.6922618305e+03 2.9391944467e+03 2.2500000000e+03 0.0000e+00 0.0000e+00
      -11  1    4    4    0    0 -8.5924642765e-02 -8.3818513459e-02 +1.5753045762e-01 1.9805224962e-01 5.1100000000e-04 0.0000e+00 -1.0000e+00
  1000022  1    4    4    0    0 -6.6721202882e+02 -5.1714063471e+02 +1.5613286489e+03 2.8658076484e+03 2.2500000000e+03 0.0000e+00 0.0000e+00
<mgrwt>
<rscale>  0 0.48077818E+04</rscale>
<asrwt>0</asrwt>
<pdfrwt beam="1">  1        2 0.69686462E+00 0.48077818E+04</pdfrwt>
<pdfrwt beam="2">  1       -2 0.19627021E+00 0.48077818E+04</pdfrwt>
<totfact> 0.11857185E-02</totfact>
</mgrwt>
</event>
<event>
 8      1 +1.2359593e-08 8.13301300e+03 7.81860800e-03 7.47068200e-02
        2 -1    0    0  501    0 +0.0000000000e+00 +0.0000000000e+00 +3.6398049639e+03 3.6398049639e+03 2.5500000000e-03 0.0000e+00 1.0000e+00
       -2 -1    0    0    0  501 -0.0000000000e+00 -0.0000000000e+00 -4.5432312271e+03 4.5432312271e+03 2.5500000000e-03 0.0000e+00 -1.0000e+00
  1000011  2    1    2    0    0 +1.2699366797e+03 +2.8157961628e+03 +9.4682655838e+02 3.9371152131e+03 2.2500996575e+03 2.0099e+02 0.0000e+00
 -1000011  2    1    2    0    0 -1.2699366797e+03 -2.8157961628e+03 -1.8502528216e+03 4.2459209779e+03 2.2501027189e+03 1.0304e+03 0.0000e+00
       11  1    3    3    0    0 +8.0616699451e-02 +2.5215684522e-01 +1.2814733358e-01 2.9411583904e-01 5.1100000000e-04 0.0000e+00 1.0000e+00
  1000022  1    3    3    0    0 +1.2698560630e+03 +2.8155440060e+03 +9.4669841105e+02 3.9368210973e+03 2.2500000000e+03 0.0000e+00 0.0000e+00
      -11  1    4    4    0    0 -1.4413067056e-01 -1.1028678109e-01 -1.5291541968e-01 2.3731879484e-01 5.1100000000e-04 0.0000e+00 -1.0000e+00
  1000022  1    4    4    0    0 -1.2697925490e+03 -2.8156858760e+03 -1.8500999062e+03 4.2456836591e+03 2.2500000000e+03 0.0000e+00 0.0000e+00
<mgrwt>
<rscale>  0 0.81330131E+04</rscale>
<asrwt>0</asrwt>
<pdfrwt beam="1">  1        2 0.55996999E+00 0.81330131E+04</pdfrwt>
<pdfrwt beam="2">  1       -2 0.69895865E+00 0.81330131E+04</pdfrwt>
<totfact> 0.87555504E-05</totfact>
</mgrwt>
</event>
<event>
 8      1 +1.2359593e-08 4.69278300e+03 7.81860800e-03 7.87772900e-02
       -2 -1    0    0    0  501 -0.0000000000e+00 +0.0000000000e+00 +1.8540957152e+03 1.8540957152e+03 2.5500000000e-03 0.0000e+00 -1.0000e+00
        2 -1    0    0  501    0 +0.0000000000e+00 -0.0000000000e+00 -2.9694000744e+03 2.9694000744e+03 2.5500000000e-03 0.0000e+00 1.0000e+00
  1000011  2    1    2    0    0 +4.9915372999e+02 -5.8306548400e+01 -1.0057395821e+03 2.5153555451e+03 2.2500994003e+03 3.6855e+03 0.0000e+00
 -1000011  2    1    2    0    0 -4.9915372999e+02 +5.8306548400e+01 -1.0956477713e+02 2.3081402445e+03 2.2501006307e+03 4.9962e+02 0.0000e+00
       11  1    3    3    0    0 +1.0768661523e-01 -5.5476234086e-02 -4.0062504489e-02 1.2759029992e-01 5.1100000000e-04 0.0000e+00 1.0000e+00
  1000022  1    3    3    0    0 +4.9904604337e+02 -5.8251072166e+01 -1.0056995196e+03 2.5152279548e+03 2.2500000000e+03 0.0000e+00 0.0000e+00
      -11  1    4    4    0    0 -1.1372898683e-01 -2.9896358754e-02 +2.7008245102e-02 1.2065562843e-01 5.1100000000e-04 0.0000e+00 -1.0000e+00
  1000022  1    4    4    0    0 -4.9904000100e+02 +5.8336444758e+01 -1.0959178538e+02 2.3080195889e+03 2.2500000000e+03 0.0000e+00 0.0000e+00
<mgrwt>
<rscale>  0 0.46927825E+04</rscale>
<asrwt>0</asrwt>
<pdfrwt beam="1">  1        2 0.45683078E+00 0.46927825E+04</pdfrwt>
<pdfrwt beam="2">  1       -2 0.28524550E+00 0.46927825E+04</pdfrwt>
<totfact> 0.53079342E-02</totfact>
</mgrwt>
</event>
<event>
 8      1 +1.2359593e-08 4.67317400e+03 7.81860800e-03 7.88100100e-02
       -2 -1    0    0    0  501 -0.0000000000e+00 +0.0000000000e+00 +1.3679984492e+03 1.3679984492e+03 2.5500000000e-03 0.0000e+00 -1.0000e+00
        2 -1    0    0  501    0 +0.0000000000e+00 -0.0000000000e+00 -3.9909684896e+03 3.9909684896e+03 2.5500000000e-03 0.0000e+00 1.0000e+00
  1000011  2    1    2    0    0 +1.3475416928e+02 +5.3706992763e+02 -1.6556376848e+03 2.8479272923e+03 2.2501002035e+03 2.5976e+02 0.0000e+00
 -1000011  2    1    2    0    0 -1.3475416928e+02 -5.3706992763e+02 -9.6733235556e+02 2.5110396465e+03 2.2501078701e+03 5.1269e+02 0.0000e+00
       11  1    3    3    0    0 +7.0498238419e-02 -4.7475705982e-02 -1.0240657062e-01 1.3308384951e-01 5.1100000000e-04 0.0000e+00 1.0000e+00
  1000022  1    3    3    0    0 +1.3468367104e+02 +5.3711740334e+02 -1.6555352782e+03 2.8477942084e+03 2.2500000000e+03 0.0000e+00 0.0000e+00
      -11  1    4    4    0    0 -8.4948876782e-03 -9.5235893118e-02 +3.7940727975e-02 1.0286786624e-01 5.1100000000e-04 0.0000e+00 -1.0000e+00
  1000022  1    4    4    0    0 -1.3474567439e+02 -5.3697469174e+02 -9.6737029629e+02 2.5109367787e+03 2.2500000000e+03 0.0000e+00 0.0000e+00
<mgrwt>
<rscale>  0 0.46731740E+04</rscale>
<asrwt>0</asrwt>
<pdfrwt beam="1">  1        2 0.61399515E+00 0.46731740E+04</pdfrwt>
<pdfrwt beam="2">  1       -2 0.21046130E+00 0.46731740E+04</pdfrwt>
<totfact> 0.29437914E-02</totfact>
</mgrwt>
</event>
<event>
 8      1 +1.2359593e-08 5.04660800e+03 7.81860800e-03 7.82135800e-02
        2 -1    0    0  501    0 +0.0000000000e+00 +0.0000000000e+00 +4.0403812574e+03 4.0403812574e+03 2.5500000000e-03 0.0000e+00 1.0000e+00
       -2 -1    0    0    0  501 -0.0000000000e+00 -0.0000000000e+00 -1.5758567741e+03 1.5758567741e+03 2.5500000000e-03 0.0000e+00 -1.0000e+00
  1000011  2    1    2    0    0 +9.4201077899e+01 -4.4713020717e+02 +2.3969339507e+03 3.3192120960e+03 2.2501282873e+03 9.3042e+02 0.0000e+00
 -1000011  2    1    2    0    0 -9.4201077899e+01 +4.4713020717e+02 +6.7590532637e+01 2.2970259355e+03 2.2501023095e+03 4.1920e+02 0.0000e+00
       11  1    3    3    0    0 +3.7677970544e-02 +6.4922604185e-02 +2.4487535557e-01 2.5612257702e-01 5.1100000000e-04 0.0000e+00 1.0000e+00
  1000022  1    3    3    0    0 +9.4163399929e+01 -4.4719512977e+02 +2.3966890753e+03 3.3189559735e+03 2.2500000000e+03 0.0000e+00 0.0000e+00
      -11  1    4    4    0    0 -3.7733489559e-02 +7.0573228416e-02 -7.9987103020e-02 1.1314854888e-01 5.1100000000e-04 0.0000e+00 -1.0000e+00
  1000022  1    4    4    0    0 -9.4163344410e+01 +4.4705963394e+02 +6.7670519740e+01 2.2969127870e+03 2.2500000000e+03 0.0000e+00 0.0000e+00
<mgrwt>
<rscale>  0 0.50466076E+04</rscale>
<asrwt>0</asrwt>
<pdfrwt beam="1">  1        2 0.62159711E+00 0.50466076E+04</pdfrwt>
<pdfrwt beam="2">  1       -2 0.24243951E+00 0.50466076E+04</pdfrwt>
<totfact> 0.16375270E-02</totfact>
</mgrwt>
</event>
<event>
 8      1 +1.2359593e-08 4.92768100e+03 7.81860800e-03 7.83976100e-02
        1 -1    0    0  501    0 +0.0000000000e+00 +0.0000000000e+00 +3.3534338728e+03 3.3534338728e+03 5.0400000000e-03 0.0000e+00 1.0000e+00
       -1 -1    0    0    0  501 -0.0000000000e+00 -0.0000000000e+00 -1.8102369701e+03 1.8102369701e+03 5.0400000000e-03 0.0000e+00 -1.0000e+00
  1000011  2    1    2    0    0 -1.1006699178e+02 +6.0144162909e+02 -6.2585347093e+01 2.3325343823e+03 2.2501006518e+03 2.4342e+02 0.0000e+00
 -1000011  2    1    2    0    0 +1.1006699178e+02 -6.0144162909e+02 +1.6057822497e+03 2.8311364606e+03 2.2501000531e+03 8.6245e+01 0.0000e+00
       11  1    3    3    0    0 -4.9133081592e-02 +3.9148341805e-02 +8.6831298009e-02 1.0717549941e-01 5.1100000000e-04 0.0000e+00 1.0000e+00
  1000022  1    3    3    0    0 -1.1001785869e+02 +6.0140248075e+02 -6.2672178391e+01 2.3324272068e+03 2.2500000000e+03 0.0000e+00 0.0000e+00
      -11  1    4    4    0    0 +1.4430767330e-02 -1.5253769268e-02 -5.0487894607e-02 5.4682837821e-02 5.1100000000e-04 0.0000e+00 -1.0000e+00
  1000022  1    4    4    0    0 +1.1005256101e+02 -6.0142637532e+02 +1.6058327376e+03 2.8310817778e+03 2.2500000000e+03 0.0000e+00 0.0000e+00
<mgrwt>
<rscale>  0 0.49276810E+04</rscale>
<asrwt>0</asrwt>
<pdfrwt beam="1">  1        1 0.51591290E+00 0.49276810E+04</pdfrwt>
<pdfrwt beam="2">  1       -1 0.27849800E+00 0.49276810E+04</pdfrwt>
<totfact> 0.10733188E-02</totfact>
</mgrwt>
</event>
<event>
 8      1 +1.2359593e-08 4.93628500e+03 7.81860800e-03 7.83841200e-02
        2 -1    0    0  501    0 +0.0000000000e+00 +0.0000000000e+00 +3.1994845620e+03 3.1994845620e+03 2.5500000000e-03 0.0000e+00 1.0000e+00
       -2 -1    0    0    0  501 -0.0000000000e+00 -0.0000000000e+00 -1.9039718681e+03 1.9039718681e+03 2.5500000000e-03 0.0000e+00 -1.0000e+00
  1000011  2    1    2    0    0 -6.8447953428e+02 -6.3836521652e+02 +1.0518361590e+03 2.6543037940e+03 2.2500993185e+03 9.4592e+02 0.0000e+00
 -1000011  2    1    2    0    0 +6.8447953428e+02 +6.3836521652e+02 +2.4367653486e+02 2.4491526361e+03 2.2500995531e+03 9.3464e+02 0.0000e+00
       11  1    3    3    0    0 -2.4337196806e-02 -4.9730370704e-02 +1.5363962464e-01 1.6331198373e-01 5.1100000000e-04 0.0000e+00 1.0000e+00
  1000022  1    3    3    0    0 -6.8445519708e+02 -6.3831548615e+02 +1.0516825194e+03 2.6541404820e+03 2.2500000000e+03 0.0000e+00 0.0000e+00
      -11  1    4    4    0    0 +9.5179789462e-02 +8.1697094705e-02 -4.8596562749e-02 1.3451949432e-01 5.1100000000e-04 0.0000e+00 -1.0000e+00
  1000022  1    4    4    0    0 +6.8438435449e+02 +6.3828351943e+02 +2.4372513143e+02 2.4490181166e+03 2.2500000000e+03 0.0000e+00 0.0000e+00
<mgrwt>
<rscale>  0 0.49362855E+04</rscale>
<asrwt>0</asrwt>
<pdfrwt beam="1">  1        2 0.49222839E+00 0.49362855E+04</pdfrwt>
<pdfrwt beam="2">  1       -2 0.29291875E+00 0.49362855E+04</pdfrwt>
<totfact> 0.33315098E-02</totfact>
</mgrwt>
</event>
<event>
 8      1 +1.2359593e-08 4.76658000e+03 7.81860800e-03 7.86555900e-02
       -2 -1    0    0    0  501 -0.0000000000e+00 +0.0000000000e+00 +2.0982366721e+03 2.0982366721e+03 2.5500000000e-03 0.0000e+00 -1.0000e+00
        2 -1    0    0  501    0 +0.0000000000e+00 -0.0000000000e+00 -2.7070689842e+03 2.7070689842e+03 2.5500000000e-03 0.0000e+00 1.0000e+00
  1000011  2    1    2    0    0 -6.4200761317e+02 -3.6117628782e+02 -2.9282262760e+01 2.3677950150e+03 2.2501052633e+03 2.3037e+03 0.0000e+00
 -1000011  2    1    2    0    0 +6.4200761317e+02 +3.6117628782e+02 -5.7955004937e+02 2.4375106413e+03 2.2501017267e+03 1.0187e+03 0.0000e+00
       11  1    3    3    0    0 -1.2205419416e-01 +3.5611097657e-02 +1.0330460712e-02 1.2756314438e-01 5.1100000000e-04 0.0000e+00 1.0000e+00
  1000022  1    3    3    0    0 -6.4188555898e+02 -3.6121189892e+02 -2.9292593221e+01 2.3676674519e+03 2.2500000000e+03 0.0000e+00 0.0000e+00
      -11  1    4    4    0    0 -4.9964847447e-02 -5.2509415540e-02 -3.8680875323e-02 8.2159573699e-02 5.1100000000e-04 0.0000e+00 -1.0000e+00
  1000022  1    4    4    0    0 +6.4205757802e+02 +3.6122879723e+02 -5.7951136849e+02 2.4374284818e+03 2.2500000000e+03 0.0000e+00 0.0000e+00
<mgrwt>
<rscale>  0 0.47665801E+04</rscale>
<asrwt>0</asrwt>
<pdfrwt beam="1">  1        2 0.41647215E+00 0.47665801E+04</pdfrwt>
<pdfrwt beam="2">  1       -2 0.32280564E+00 0.47665801E+04</pdfrwt>
<totfact> 0.44866034E-02</totfact>
</mgrwt>
</event>
<event>
 8      1 +1.2359593e-08 5.22788500e+03 7.81860800e-03 7.79428400e-02
        2 -1    0    0  501    0 +0.0000000000e+00 +0.0000000000e+00 +2.2664087057e+03 2.2664087058e+03 2.5500000000e-03 0.0000e+00 1.0000e+00
       -2 -1    0    0    0  501 -0.0000000000e+00 -0.0000000000e+00 -3.0147670366e+03 3.0147670366e+03 2.5500000000e-03 0.0000e+00 -1.0000e+00
  1000011  2    1    2    0    0 -4.5051584844e+02 -9.4553295269e+02 -1.2027376318e+03 2.7579932340e+03 2.2501003918e+03 4.6916e+02 0.0000e+00
 -1000011  2    1    2    0    0 +4.5051584844e+02 +9.4553295269e+02 +4.5437930098e+02 2.5231825084e+03 2.2501094034e+03 1.3538e+03 0.0000e+00
       11  1    3    3    0    0 -1.8232983705e-03 -1.9396163569e-04 +5.7263225142e-02 5.7294851705e-02 5.1100000000e-04 0.0000e+00 1.0000e+00
  1000022  1    3    3    0    0 -4.5051402514e+02 -9.4553275872e+02 -1.2027948950e+03 2.7579359391e+03 2.2500000000e+03 0.0000e+00 0.0000e+00
      -11  1    4    4    0    0 +9.6401906242e-02 -3.0740396676e-02 +4.7611981279e-02 1.1182781780e-01 5.1100000000e-04 0.0000e+00 -1.0000e+00
  1000022  1    4    4    0    0 +4.5041944653e+02 +9.4556369308e+02 +4.5433168900e+02 2.5230706806e+03 2.2500000000e+03 0.0000e+00 0.0000e+00
<mgrwt>
<rscale>  0 0.52278846E+04</rscale>
<asrwt>0</asrwt>
<pdfrwt beam="1">  1        2 0.34867826E+00 0.52278846E+04</pdfrwt>
<pdfrwt beam="2">  1       -2 0.46381031E+00 0.52278846E+04</pdfrwt>
<totfact> 0.95750961E-03</totfact>
</mgrwt>
</event>
<event>
 8      1 +1.2359593e-08 4.79250900e+03 7.81860800e-03 7.86133700e-02
       -2 -1    0    0    0  501 -0.0000000000e+00 +0.0000000000e+00 +1.6823489068e+03 1.6823489068e+03 2.5500000000e-03 0.0000e+00 -1.0000e+00
        2 -1    0    0  501    0 +0.0000000000e+00 -0.0000000000e+00 -3.4131068993e+03 3.4131068993e+03 2.5500000000e-03 0.0000e+00 1.0000e+00
  1000011  2    1    2    0    0 +7.1320214298e+02 -4.4425118060e+01 -4.2899751163e+02 2.3995033264e+03 2.2500992112e+03 3.3282e+03 0.0000e+00
 -1000011  2    1    2    0    0 -7.1320214298e+02 +4.4425118060e+01 -1.3017604809e+03 2.6959524797e+03 2.2500996723e+03 4.4039e+02 0.0000e+00
       11  1    3    3    0    0 -5.6755020379e-03 +9.0832357878e-02 -2.1323280707e-02 9.3475511758e-02 5.1100000000e-04 0.0000e+00 1.0000e+00
  1000022  1    3    3    0    0 +7.1320781848e+02 -4.4515950418e+01 -4.2897618835e+02 2.3994098508e+03 2.2500000000e+03 0.0000e+00 0.0000e+00
      -11  1    4    4    0    0 +2.6126556933e-02 +7.1545430459e-02 +2.5730094571e-03 7.6211724058e-02 5.1100000000e-04 0.0000e+00 -1.0000e+00
  1000022  1    4    4    0    0 -7.1322826953e+02 +4.4353572630e+01 -1.3017630539e+03 2.6958762680e+03 2.2500000000e+03 0.0000e+00 0.0000e+00
<mgrwt>
<rscale>  0 0.47925094E+04</rscale>
<asrwt>0</asrwt>
<pdfrwt beam="1">  1        2 0.52509337E+00 0.47925094E+04</pdfrwt>
<pdfrwt beam="2">  1       -2 0.25882291E+00 0.47925094E+04</pdfrwt>
<totfact> 0.39144601E-02</totfact>
</mgrwt>
</event>
<event>
 8      1 +1.2359593e-08 4.56853400e+03 7.81860800e-03 7.89874700e-02
        2 -1    0    0  501    0 +0.0000000000e+00 +0.0000000000e+00 +3.1580593989e+03 3.1580593989e+03 2.5500000000e-03 0.0000e+00 -1.0000e+00
       -2 -1    0    0    0  501 -0.0000000000e+00 -0.0000000000e+00 -1.6522408917e+03 1.6522408917e+03 2.5500000000e-03 0.0000e+00 1.0000e+00
  1000011  2    1    2    0    0 +3.0784014391e+02 -1.4145440097e+02 +9.6387598301e+02 2.4711904035e+03 2.2501000417e+03 2.2513e+03 0.0000e+00
 -1000011  2    1    2    0    0 -3.0784014391e+02 +1.4145440097e+02 +5.4194252419e+02 2.3391098872e+03 2.2501018784e+03 2.9665e+02 0.0000e+00
       11  1    3    3    0    0 +1.9787746338e-02 +4.8871645737e-02 -4.8685506484e-02 7.1767207292e-02 5.1100000000e-04 0.0000e+00 1.0000e+00
  1000022  1    3    3    0    0 +3.0782035617e+02 -1.4150327262e+02 +9.6392466852e+02 2.4711186362e+03 2.2500000000e+03 0.0000e+00 0.0000e+00
      -11  1    4    4    0    0 -9.5947561227e-02 +2.7836363852e-02 -3.1983388755e-02 1.0489993004e-01 5.1100000000e-04 0.0000e+00 -1.0000e+00
  1000022  1    4    4    0    0 -3.0774419635e+02 +1.4142656461e+02 +5.4197450758e+02 2.3390049873e+03 2.2500000000e+03 0.0000e+00 0.0000e+00
<mgrwt>
<rscale>  0 0.45685336E+04</rscale>
<asrwt>0</asrwt>
<pdfrwt beam="1">  1        2 0.48585528E+00 0.45685336E+04</pdfrwt>
<pdfrwt beam="2">  1       -2 0.25419091E+00 0.45685336E+04</pdfrwt>
<totfact> 0.62956601E-02</totfact>
</mgrwt>
</event>
<event>
 8      1 +1.2359593e-08 6.50420800e+03 7.81860800e-03 7.63084700e-02
       -2 -1    0    0    0  501 -0.0000000000e+00 +0.0000000000e+00 +3.0855846975e+03 3.0855846975e+03 2.5500000000e-03 0.0000e+00 -1.0000e+00
        2 -1    0    0  501    0 +0.0000000000e+00 -0.0000000000e+00 -3.4276093608e+03 3.4276093608e+03 2.5500000000e-03 0.0000e+00 1.0000e+00
  1000011  2    1    2    0    0 -9.5266926649e+02 -1.5291263287e+03 +1.3368616691e+03 3.1774161797e+03 2.2501040856e+03 1.3543e+03 0.0000e+00
 -1000011  2    1    2    0    0 +9.5266926649e+02 +1.5291263287e+03 -1.6788863324e+03 3.3357778786e+03 2.2500997040e+03 3.0931e+03 0.0000e+00
       11  1    3    3    0    0 -8.2127515762e-03 -4.4481841444e-03 -5.4559028828e-02 5.5355073009e-02 5.1100000000e-04 0.0000e+00 1.0000e+00
  1000022  1    3    3    0    0 -9.5266105374e+02 -1.5291218805e+03 +1.3369162281e+03 3.1773608246e+03 2.2500000000e+03 0.0000e+00 0.0000e+00
      -11  1    4    4    0    0 +3.0778185223e-02 +1.6124719333e-01 -3.5941652326e-02 1.6804766323e-01 5.1100000000e-04 0.0000e+00 -1.0000e+00
  1000022  1    4    4    0    0 +9.5263848831e+02 +1.5289650815e+03 -1.6788503907e+03 3.3356098309e+03 2.2500000000e+03 0.0000e+00 0.0000e+00
<mgrwt>
<rscale>  0 0.65042076E+04</rscale>
<asrwt>0</asrwt>
<pdfrwt beam="1">  1        2 0.52732452E+00 0.65042076E+04</pdfrwt>
<pdfrwt beam="2">  1       -2 0.47470534E+00 0.65042076E+04</pdfrwt>
<totfact> 0.14223620E-03</totfact>
</mgrwt>
</event>
<event>
 8      1 +1.2359593e-08 5.12788700e+03 7.81860800e-03 7.80907700e-02
       -2 -1    0    0    0  501 -0.0000000000e+00 +0.0000000000e+00 +2.5694823052e+03 2.5694823052e+03 2.5500000000e-03 0.0000e+00 -1.0000e+00
        2 -1    0    0  501    0 +0.0000000000e+00 -0.0000000000e+00 -2.5584166572e+03 2.5584166572e+03 2.5500000000e-03 0.0000e+00 1.0000e+00
  1000011  2    1    2    0    0 +2.5794254484e+01 +1.2130158720e+03 +2.0256474656e+02 2.5643835762e+03 2.2501017311e+03 5.1181e+02 0.0000e+00
 -1000011  2    1    2    0    0 -2.5794254484e+01 -1.2130158720e+03 -1.9149909859e+02 2.5635153862e+03 2.2500814166e+03 7.3923e+01 0.0000e+00
       11  1    3    3    0    0 -2.8713617214e-02 +1.6433348280e-01 +1.5866145980e-03 1.6683148205e-01 5.1100000000e-04 0.0000e+00 1.0000e+00
  1000022  1    3    3    0    0 +2.5822968101e+01 +1.2128515385e+03 +2.0256315995e+02 2.5642167447e+03 2.2500000000e+03 0.0000e+00 0.0000e+00
      -11  1    4    4    0    0 -7.6129775061e-02 -1.4926734205e-02 -2.3421925056e-02 8.1039480728e-02 5.1100000000e-04 0.0000e+00 -1.0000e+00
  1000022  1    4    4    0    0 -2.5718124708e+01 -1.2130009453e+03 -1.9147567667e+02 2.5634343467e+03 2.2500000000e+03 0.0000e+00 0.0000e+00
<mgrwt>
<rscale>  0 0.51278870E+04</rscale>
<asrwt>0</asrwt>
<pdfrwt beam="1">  1        2 0.39360256E+00 0.51278870E+04</pdfrwt>
<pdfrwt beam="2">  1       -2 0.39530497E+00 0.51278870E+04</pdfrwt>
<totfact> 0.18491348E-02</totfact>
</mgrwt>
</event>
<event>
 8      1 +1.2359593e-08 5.91238300e+03 7.81860800e-03 7.70136100e-02
       -2 -1    0    0    0  501 -0.0000000000e+00 +0.0000000000e+00 +1.7599447866e+03 1.7599447866e+03 2.5500000000e-03 0.0000e+00 1.0000e+00
        2 -1    0    0  501    0 +0.0000000000e+00 -0.0000000000e+00 -4.9655353429e+03 4.9655353429e+03 2.5500000000e-03 0.0000e+00 -1.0000e+00
  1000011  2    1    2    0    0 -1.3747790137e+03 -1.3224072731e+03 -1.3830581405e+03 3.2580078775e+03 2.2501082590e+03 9.3639e+01 0.0000e+00
 -1000011  2    1    2    0    0 +1.3747790137e+03 +1.3224072731e+03 -1.8225324159e+03 3.4674722520e+03 2.2501024596e+03 7.8770e+02 0.0000e+00
       11  1    3    3    0    0 -1.8412005461e-01 -1.2099521513e-01 -1.3968490260e-01 2.6086810735e-01 5.1100000000e-04 0.0000e+00 1.0000e+00
  1000022  1    3    3    0    0 -1.3745948937e+03 -1.3222862779e+03 -1.3829184556e+03 3.2577470094e+03 2.2500000000e+03 0.0000e+00 0.0000e+00
      -11  1    4    4    0    0 +1.6001511304e-01 +9.3903448088e-02 -1.9023845242e-01 2.6573223982e-01 5.1100000000e-04 0.0000e+00 -1.0000e+00
  1000022  1    4    4    0    0 +1.3746189986e+03 +1.3223133697e+03 -1.8223421774e+03 3.4672065197e+03 2.2500000000e+03 0.0000e+00 0.0000e+00
<mgrwt>
<rscale>  0 0.59123830E+04</rscale>
<asrwt>0</asrwt>
<pdfrwt beam="1">  1        2 0.76392851E+00 0.59123830E+04</pdfrwt>
<pdfrwt beam="2">  1       -2 0.27076074E+00 0.59123830E+04</pdfrwt>
<totfact> 0.12073313E-03</totfact>
</mgrwt>
</event>
<event>
 8      1 +1.2359593e-08 5.17324600e+03 7.81860800e-03 7.80232400e-02
        2 -1    0    0  501    0 +0.0000000000e+00 +0.0000000000e+00 +3.3622981478e+03 3.3622981478e+03 2.5500000000e-03 0.0000e+00 1.0000e+00
       -2 -1    0    0    0  501 -0.0000000000e+00 -0.0000000000e+00 -1.9898944010e+03 1.9898944010e+03 2.5500000000e-03 0.0000e+00 -1.0000e+00
  1000011  2    1    2    0    0 -9.6427268026e+02 -8.3070809327e+02 +5.9507483876e+02 2.6527284376e+03 2.2501014114e+03 3.1986e+02 0.0000e+00
 -1000011  2    1    2    0    0 +9.6427268026e+02 +8.3070809327e+02 +7.7732890800e+02 2.6994641112e+03 2.2501041127e+03 4.8985e+02 0.0000e+00
       11  1    3    3    0    0 -1.0410495370e-01 +4.1648388687e-02 +6.7455752359e-03 1.1233073202e-01 5.1100000000e-04 0.0000e+00 1.0000e+00
  1000022  1    3    3    0    0 -9.6416857531e+02 -8.3074974166e+02 +5.9506809319e+02 2.6526161069e+03 2.2500000000e+03 0.0000e+00 0.0000e+00
      -11  1    4    4    0    0 +1.1771830544e-01 +1.8680912442e-03 -2.8620937971e-02 1.2116314710e-01 5.1100000000e-04 0.0000e+00 -1.0000e+00
  1000022  1    4    4    0    0 +9.6415496195e+02 +8.3070622518e+02 +7.7735752893e+02 2.6993429480e+03 2.2500000000e+03 0.0000e+00 0.0000e+00
<mgrwt>
<rscale>  0 0.51732459E+04</rscale>
<asrwt>0</asrwt>
<pdfrwt beam="1">  1        2 0.51727664E+00 0.51732459E+04</pdfrwt>
<pdfrwt beam="2">  1       -2 0.30613760E+00 0.51732459E+04</pdfrwt>
<totfact> 0.21137096E-02</totfact>
</mgrwt>
</event>
<event>
 8      1 +1.2359593e-08 4.55281300e+03 7.81860800e-03 7.90145500e-02
       -2 -1    0    0    0  501 -0.0000000000e+00 +0.0000000000e+00 +1.6447238381e+03 1.6447238381e+03 2.5500000000e-03 0.0000e+00 -1.0000e+00
        2 -1    0    0  501    0 +0.0000000000e+00 -0.0000000000e+00 -3.1506972341e+03 3.1506972341e+03 2.5500000000e-03 0.0000e+00 1.0000e+00
  1000011  2    1    2    0    0 +8.5207577750e+01 -3.3183421228e+02 -7.9645006571e+02 2.4113597151e+03 2.2500997073e+03 5.4886e+03 0.0000e+00
 -1000011  2    1    2    0    0 -8.5207577750e+01 +3.3183421228e+02 -7.0952333037e+02 2.3840613571e+03 2.2501002027e+03 9.5297e+02 0.0000e+00
       11  1    3    3    0    0 +9.5277512688e-02 +2.3510394849e-02 -2.3302545800e-02 1.0086531889e-01 5.1100000000e-04 0.0000e+00 1.0000e+00
  1000022  1    3    3    0    0 +8.5112300237e+01 -3.3185772267e+02 -7.9642676316e+02 2.4112588498e+03 2.2500000000e+03 0.0000e+00 0.0000e+00
      -11  1    4    4    0    0 -1.8642578260e-02 -7.8284723241e-03 +7.0357993952e-02 7.3207504383e-02 5.1100000000e-04 0.0000e+00 -1.0000e+00
  1000022  1    4    4    0    0 -8.5188935171e+01 +3.3184204075e+02 -7.0959368837e+02 2.3839881496e+03 2.2500000000e+03 0.0000e+00 0.0000e+00
<mgrwt>
<rscale>  0 0.45528131E+04</rscale>
<asrwt>0</asrwt>
<pdfrwt beam="1">  1        2 0.48472265E+00 0.45528131E+04</pdfrwt>
<pdfrwt beam="2">  1       -2 0.25303444E+00 0.45528131E+04</pdfrwt>
<totfact> 0.64783590E-02</totfact>
</mgrwt>
</event>
<event>
 8      1 +1.2359593e-08 4.56314100e+03 7.81860800e-03 7.89967500e-02
       -2 -1    0    0    0  501 -0.0000000000e+00 +0.0000000000e+00 +2.1899172293e+03 2.1899172293e+03 2.5500000000e-03 0.0000e+00 -1.0000e+00
        2 -1    0    0  501    0 +0.0000000000e+00 -0.0000000000e+00 -2.3770598759e+03 2.3770598759e+03 2.5500000000e-03 0.0000e+00 1.0000e+00
  1000011  2    1    2    0    0 -9.6172225726e+01 +2.6182289832e+02 -3.4836995591e+02 2.2939304061e+03 2.2501010544e+03 6.7710e+01 0.0000e+00
 -1000011  2    1    2    0    0 +9.6172225726e+01 -2.6182289832e+02 +1.6122730927e+02 2.2730466990e+03 2.2500992697e+03 4.9879e+02 0.0000e+00
       11  1    3    3    0    0 -9.2310227470e-04 +8.8696177265e-02 -8.3768288054e-02 1.2200512683e-01 5.1100000000e-04 0.0000e+00 1.0000e+00
  1000022  1    3    3    0    0 -9.6171302623e+01 +2.6173420215e+02 -3.4828618762e+02 2.2938084010e+03 2.2500000000e+03 0.0000e+00 0.0000e+00
      -11  1    4    4    0    0 +5.0258911114e-02 -6.5970923947e-02 +7.7462970929e-02 1.1348521277e-01 5.1100000000e-04 0.0000e+00 -1.0000e+00
  1000022  1    4    4    0    0 +9.6121966815e+01 -2.6175692740e+02 +1.6114984630e+02 2.2729332138e+03 2.2500000000e+03 0.0000e+00 0.0000e+00
<mgrwt>
<rscale>  0 0.45631412E+04</rscale>
<asrwt>0</asrwt>
<pdfrwt beam="1">  1        2 0.36570152E+00 0.45631412E+04</pdfrwt>
<pdfrwt beam="2">  1       -2 0.33691034E+00 0.45631412E+04</pdfrwt>
<totfact> 0.58070844E-02</totfact>
</mgrwt>
</event>
<event>
 8      1 +1.2359593e-08 4.82221300e+03 7.81860800e-03 7.85653300e-02
        2 -1    0    0  501    0 +0.0000000000e+00 +0.0000000000e+00 +2.7779686215e+03 2.7779686215e+03 2.5500000000e-03 0.0000e+00 1.0000e+00
       -2 -1    0    0    0  501 -0.0000000000e+00 -0.0000000000e+00 -2.0926930940e+03 2.0926930940e+03 2.5500000000e-03 0.0000e+00 -1.0000e+00
  1000011  2    1    2    0    0 -3.2432380826e+02 +3.7362791711e+02 -3.7563059366e+02 2.3342754651e+03 2.2501021868e+03 1.2597e+02 0.0000e+00
 -1000011  2    1    2    0    0 +3.2432380826e+02 -3.7362791711e+02 +1.0609061211e+03 2.5363862505e+03 2.2500999224e+03 1.2101e+03 0.0000e+00
       11  1    3    3    0    0 -7.8294211441e-02 +6.9445953233e-03 +6.2511886072e-02 1.0043011233e-01 5.1100000000e-04 0.0000e+00 1.0000e+00
  1000022  1    3    3    0    0 -3.2424551405e+02 +3.7362097251e+02 -3.7569310554e+02 2.3341750350e+03 2.2500000000e+03 0.0000e+00 0.0000e+00
      -11  1    4    4    0    0 -3.4129894328e-02 -8.6187824716e-02 +1.0746699641e-01 1.4192465296e-01 5.1100000000e-04 0.0000e+00 -1.0000e+00
  1000022  1    4    4    0    0 +3.2435793815e+02 -3.7354172928e+02 +1.0607986541e+03 2.5362443258e+03 2.2500000000e+03 0.0000e+00 0.0000e+00
<mgrwt>
<rscale>  0 0.48222135E+04</rscale>
<asrwt>0</asrwt>
<pdfrwt beam="1">  1        2 0.42737978E+00 0.48222135E+04</pdfrwt>
<pdfrwt beam="2">  1       -2 0.32195279E+00 0.48222135E+04</pdfrwt>
<totfact> 0.40992525E-02</totfact>
</mgrwt>
</event>
<event>
 8      1 +1.2359593e-08 5.56112200e+03 7.81860800e-03 7.74733400e-02
        2 -1    0    0  501    0 +0.0000000000e+00 +0.0000000000e+00 +2.9354062727e+03 2.9354062727e+03 2.5500000000e-03 0.0000e+00 1.0000e+00
       -2 -1    0    0    0  501 -0.0000000000e+00 -0.0000000000e+00 -2.6338837898e+03 2.6338837898e+03 2.5500000000e-03 0.0000e+00 -1.0000e+00
  1000011  2    1    2    0    0 -1.6000798812e+03 +7.5722506127e+01 -1.7000176027e+02 2.7672809765e+03 2.2501008601e+03 3.4824e+02 0.0000e+00
 -1000011  2    1    2    0    0 +1.6000798812e+03 -7.5722506127e+01 +4.7152424315e+02 2.8020090860e+03 2.2500956161e+03 1.8277e+03 0.0000e+00
       11  1    3    3    0    0 -1.8314440399e-01 -2.9758879965e-02 +1.5117752294e-02 1.8616194811e-01 5.1100000000e-04 0.0000e+00 1.0000e+00
  1000022  1    3    3    0    0 -1.5998967368e+03 +7.5752265007e+01 -1.7001687802e+02 2.7670948146e+03 2.2500000000e+03 0.0000e+00 0.0000e+00
      -11  1    4    4    0    0 +6.1614286167e-02 +2.5842766070e-02 -7.3023153285e-02 9.8978838888e-02 5.1100000000e-04 0.0000e+00 -1.0000e+00
  1000022  1    4    4    0    0 +1.6000182669e+03 -7.5748348893e+01 +4.7159726630e+02 2.8019101071e+03 2.2500000000e+03 0.0000e+00 0.0000e+00
<mgrwt>
<rscale>  0 0.55611218E+04</rscale>
<asrwt>0</asrwt>
<pdfrwt beam="1">  1        2 0.45160096E+00 0.55611218E+04</pdfrwt>
<pdfrwt beam="2">  1       -2 0.40521289E+00 0.55611218E+04</pdfrwt>
<totfact> 0.91367285E-03</totfact>
</mgrwt>
</event>
<event>
 8      1 +1.2359593e-08 5.02261000e+03 7.81860800e-03 7.82502900e-02
       -2 -1    0    0    0  501 -0.0000000000e+00 +0.0000000000e+00 +2.6898183090e+03 2.6898183090e+03 2.5500000000e-03 0.0000e+00 -1.0000e+00
        2 -1    0    0  501    0 +0.0000000000e+00 -0.0000000000e+00 -2.3446385636e+03 2.3446385636e+03 2.5500000000e-03 0.0000e+00 1.0000e+00
  1000011  2    1    2    0    0 +3.8407167363e+02 +7.7708831454e+02 -5.3071585596e+02 2.4690067448e+03 2.2501017059e+03 1.5539e+03 0.0000e+00
 -1000011  2    1    2    0    0 -3.8407167363e+02 -7.7708831454e+02 +8.7589560139e+02 2.5654501278e+03 2.2501030987e+03 8.8448e+01 0.0000e+00
       11  1    3    3    0    0 +1.0249947146e-01 +8.9099114449e-02 +3.7638672661e-03 1.3586471671e-01 5.1100000000e-04 0.0000e+00 1.0000e+00
  1000022  1    3    3    0    0 +3.8396917416e+02 +7.7699921542e+02 -5.3071961982e+02 2.4688708800e+03 2.2500000000e+03 0.0000e+00 0.0000e+00
      -11  1    4    4    0    0 -9.2364300978e-02 -7.9812917521e-02 +1.1494436305e-01 1.6767150421e-01 5.1100000000e-04 0.0000e+00 -1.0000e+00
  1000022  1    4    4    0    0 -3.8397930933e+02 -7.7700850162e+02 +8.7578065703e+02 2.5652824563e+03 2.2500000000e+03 0.0000e+00 0.0000e+00
<mgrwt>
<rscale>  0 0.50226096E+04</rscale>
<asrwt>0</asrwt>
<pdfrwt beam="1">  1        2 0.36071363E+00 0.50226096E+04</pdfrwt>
<pdfrwt beam="2">  1       -2 0.41381820E+00 0.50226096E+04</pdfrwt>
<totfact> 0.18737382E-02</totfact>
</mgrwt>
</event>
<event>
 8      1 +1.2359593e-08 4.76374900e+03 7.81860800e-03 7.86602200e-02
       -2 -1    0    0    0  501 -0.0000000000e+00 +0.0000000000e+00 +1.4987602027e+03 1.4987602027e+03 2.5500000000e-03 0.0000e+00 -1.0000e+00
        2 -1    0    0  501    0 +0.0000000000e+00 -0.0000000000e+00 -3.7853461689e+03 3.7853461689e+03 2.5500000000e-03 0.0000e+00 1.0000e+00
  1000011  2    1    2    0    0 +2.8967307755e+02 -2.1550703827e+02 -3.7475952560e+02 2.3094823988e+03 2.2500912143e+03 1.2889e+03 0.0000e+00
 -1000011  2    1    2    0    0 -2.8967307755e+02 +2.1550703827e+02 -1.9118264406e+03 2.9746239729e+03 2.2501008123e+03 3.0961e+02 0.0000e+00
       11  1    3    3    0    0 -3.7208363678e-02 -7.1262974985e-03 -9.2389986133e-02 9.9856982212e-02 5.1100000000e-04 0.0000e+00 1.0000e+00
  1000022  1    3    3    0    0 +2.8971028592e+02 -2.1549991197e+02 -3.7466713561e+02 2.3093825418e+03 2.2500000000e+03 0.0000e+00 0.0000e+00
      -11  1    4    4    0    0 -1.7923898340e-02 -8.2986934690e-02 -2.6270560706e-02 8.8873509474e-02 5.1100000000e-04 0.0000e+00 -1.0000e+00
  1000022  1    4    4    0    0 -2.8965515365e+02 +2.1559002520e+02 -1.9118001701e+03 2.9745350994e+03 2.2500000000e+03 0.0000e+00 0.0000e+00
<mgrwt>
<rscale>  0 0.47637490E+04</rscale>
<asrwt>0</asrwt>
<pdfrwt beam="1">  1        2 0.58236095E+00 0.47637490E+04</pdfrwt>
<pdfrwt beam="2">  1       -2 0.23057849E+00 0.47637490E+04</pdfrwt>
<totfact> 0.31589056E-02</totfact>
</mgrwt>
</event>
<event>
 8      1 +1.2359593e-08 5.18259200e+03 7.81860800e-03 7.80094200e-02
       -2 -1    0    0    0  501 -0.0000000000e+00 +0.0000000000e+00 +2.6086827554e+03 2.6086827554e+03 2.5500000000e-03 0.0000e+00 -1.0000e+00
        2 -1    0    0  501    0 +0.0000000000e+00 -0.0000000000e+00 -2.5740250632e+03 2.5740250632e+03 2.5500000000e-03 0.0000e+00 1.0000e+00
  1000011  2    1    2    0    0 +1.1755047353e+03 +5.9314413055e+01 -4.9894929703e+02 2.5879024496e+03 2.2501020211e+03 2.1201e+03 0.0000e+00
 -1000011  2    1    2    0    0 -1.1755047353e+03 -5.9314413055e+01 +5.3360698917e+02 2.5948053690e+03 2.2500997538e+03 9.7826e+01 0.0000e+00
       11  1    3    3    0    0 -4.1986647737e-02 +5.8213101290e-02 -2.3241363766e-02 7.5445777022e-02 5.1100000000e-04 0.0000e+00 1.0000e+00
  1000022  1    3    3    0    0 +1.1755467219e+03 +5.9256199954e+01 -4.9892605567e+02 2.5878270038e+03 2.2500000000e+03 0.0000e+00 0.0000e+00
      -11  1    4    4    0    0 +5.0947445189e-02 -3.7127474270e-02 -4.9994143796e-03 6.3240384213e-02 5.1100000000e-04 0.0000e+00 -1.0000e+00
  1000022  1    4    4    0    0 -1.1755556827e+03 -5.9277285581e+01 +5.3361198859e+02 2.5947421286e+03 2.2500000000e+03 0.0000e+00 0.0000e+00
<mgrwt>
<rscale>  0 0.51825919E+04</rscale>
<asrwt>0</asrwt>
<pdfrwt beam="1">  1        2 0.39600385E+00 0.51825919E+04</pdfrwt>
<pdfrwt beam="2">  1       -2 0.40133581E+00 0.51825919E+04</pdfrwt>
<totfact> 0.16467212E-02</totfact>
</mgrwt>
</event>
<event>
 8      1 +1.2359593e-08 4.87688100e+03 7.81860800e-03 7.84778500e-02
        2 -1    0    0  501    0 +0.0000000000e+00 +0.0000000000e+00 +2.3117380535e+03 2.3117380535e+03 2.5500000000e-03 0.0000e+00 1.0000e+00
       -2 -1    0    0    0  501 -0.0000000000e+00 -0.0000000000e+00 -2.5720873313e+03 2.5720873313e+03 2.5500000000e-03 0.0000e+00 -1.0000e+00
  1000011  2    1    2    0    0 -5.6936581982e+02 +2.7265287155e+02 +5.6690014294e+02 2.4047537736e+03 2.2500995344e+03 2.1452e+02 0.0000e+00
 -1000011  2    1    2    0    0 +5.6936581982e+02 -2.7265287155e+02 -8.2724942074e+02 2.4790716111e+03 2.2500972032e+03 4.7355e+02 0.0000e+00
       11  1    3    3    0    0 -6.5777603771e-02 +3.1882947014e-03 +1.2073555906e-01 1.3752888559e-01 5.1100000000e-04 0.0000e+00 1.0000e+00
  1000022  1    3    3    0    0 -5.6930004222e+02 +2.7264968325e+02 +5.6677940738e+02 2.4046162447e+03 2.2500000000e+03 0.0000e+00 0.0000e+00
      -11  1    4    4    0    0 -5.4789033984e-02 +4.2911961940e-02 +3.6791820145e-03 6.9692695617e-02 5.1100000000e-04 0.0000e+00 -1.0000e+00
  1000022  1    4    4    0    0 +5.6942060886e+02 -2.7269578351e+02 -8.2725309992e+02 2.4790019184e+03 2.2500000000e+03 0.0000e+00 0.0000e+00
<mgrwt>
<rscale>  0 0.48768810E+04</rscale>
<asrwt>0</asrwt>
<pdfrwt beam="1">  1        2 0.35565201E+00 0.48768810E+04</pdfrwt>
<pdfrwt beam="2">  1       -2 0.39570574E+00 0.48768810E+04</pdfrwt>
<totfact> 0.26000767E-02</totfact>
</mgrwt>
</event>
<event>
 8      1 +1.2359593e-08 4.66857600e+03 7.81860800e-03 7.88177100e-02
        2 -1    0    0  501    0 +0.0000000000e+00 +0.0000000000e+00 +3.9856938107e+03 3.9856938107e+03 2.5500000000e-03 0.0000e+00 1.0000e+00
       -2 -1    0    0    0  501 -0.0000000000e+00 -0.0000000000e+00 -1.3671144320e+03 1.3671144320e+03 2.5500000000e-03 0.0000e+00 -1.0000e+00
  1000011  2    1    2    0    0 -5.0658264311e+02 +3.5817984541e+02 +1.2726851978e+03 2.6584944322e+03 2.2500991661e+03 8.6290e+02 0.0000e+00
 -1000011  2    1    2    0    0 +5.0658264311e+02 -3.5817984541e+02 +1.3458941809e+03 2.6943138105e+03 2.2501059948e+03 2.0702e+03 0.0000e+00
       11  1    3    3    0    0 +1.3747693831e-02 +3.2659877459e-02 +1.5684030894e-01 1.6079431005e-01 5.1100000000e-04 0.0000e+00 1.0000e+00
  1000022  1    3    3    0    0 -5.0659639080e+02 +3.5814718553e+02 +1.2725283575e+03 2.6583336379e+03 2.2500000000e+03 0.0000e+00 0.0000e+00
      -11  1    4    4    0    0 +7.6215802970e-02 +6.6512876953e-02 +1.7239837457e-02 1.0261717343e-01 5.1100000000e-04 0.0000e+00 -1.0000e+00
  1000022  1    4    4    0    0 +5.0650642730e+02 -3.5824635828e+02 +1.3458769410e+03 2.6942111934e+03 2.2500000000e+03 0.0000e+00 0.0000e+00
<mgrwt>
<rscale>  0 0.46685756E+04</rscale>
<asrwt>0</asrwt>
<pdfrwt beam="1">  1        2 0.61318365E+00 0.46685756E+04</pdfrwt>
<pdfrwt beam="2">  1       -2 0.21032530E+00 0.46685756E+04</pdfrwt>
<totfact> 0.29800199E-02</totfact>
</mgrwt>
</event>
<event>
 8      1 +1.2359593e-08 4.73997500e+03 7.81860800e-03 7.86992000e-02
       -2 -1    0    0    0  501 -0.0000000000e+00 +0.0000000000e+00 +1.4679073262e+03 1.4679073262e+03 2.5500000000e-03 0.0000e+00 -1.0000e+00
        2 -1    0    0  501    0 +0.0000000000e+00 -0.0000000000e+00 -3.8264275576e+03 3.8264275576e+03 2.5500000000e-03 0.0000e+00 1.0000e+00
  1000011  2    1    2    0    0 +4.8591662222e+02 +5.3061337065e+02 -9.6659531794e+02 2.5524347006e+03 2.2501001932e+03 1.1066e+02 0.0000e+00
 -1000011  2    1    2    0    0 -4.8591662222e+02 -5.3061337065e+02 -1.3919249134e+03 2.7419001832e+03 2.2500880287e+03 3.1554e+03 0.0000e+00
       11  1    3    3    0    0 +1.0095879396e-01 +8.6576964585e-02 -2.6695693816e-02 1.3565091157e-01 5.1100000000e-04 0.0000e+00 1.0000e+00
  1000022  1    3    3    0    0 +4.8581566342e+02 +5.3052679368e+02 -9.6656862224e+02 2.5522990497e+03 2.2500000000e+03 0.0000e+00 0.0000e+00
      -11  1    4    4    0    0 -7.7544768750e-02 -4.5997014759e-02 +8.5077997893e-03 9.0562464244e-02 5.1100000000e-04 0.0000e+00 -1.0000e+00
  1000022  1    4    4    0    0 -4.8583907745e+02 -5.3056737363e+02 -1.3919334212e+03 2.7418096207e+03 2.2500000000e+03 0.0000e+00 0.0000e+00
<mgrwt>
<rscale>  0 0.47399751E+04</rscale>
<asrwt>0</asrwt>
<pdfrwt beam="1">  1        2 0.58868116E+00 0.47399751E+04</pdfrwt>
<pdfrwt beam="2">  1       -2 0.22583190E+00 0.47399751E+04</pdfrwt>
<totfact> 0.31529051E-02</totfact>
</mgrwt>
</event>
<event>
 8      1 +1.2359593e-08 4.57672800e+03 7.81860800e-03 7.89734000e-02
       -2 -1    0    0    0  501 -0.0000000000e+00 +0.0000000000e+00 +1.8188689097e+03 1.8188689098e+03 2.5500000000e-03 0.0000e+00 -1.0000e+00
        2 -1    0    0  501    0 +0.0000000000e+00 -0.0000000000e+00 -2.8790477846e+03 2.8790477846e+03 2.5500000000e-03 0.0000e+00 1.0000e+00
  1000011  2    1    2    0    0 +6.7231385081e+01 +4.0132969577e+02 -6.2231023826e+02 2.3697704575e+03 2.2501014210e+03 1.0450e+03 0.0000e+00
 -1000011  2    1    2    0    0 -6.7231385081e+01 -4.0132969577e+02 -4.3786863655e+02 2.3281462368e+03 2.2501000807e+03 1.8361e+02 0.0000e+00
       11  1    3    3    0    0 -9.3460452086e-02 +4.1124239960e-02 -5.0260897825e-02 1.1380895238e-01 5.1100000000e-04 0.0000e+00 1.0000e+00
  1000022  1    3    3    0    0 +6.7324845533e+01 +4.0128857153e+02 -6.2225997736e+02 2.3696566485e+03 2.2500000000e+03 0.0000e+00 0.0000e+00
      -11  1    4    4    0    0 -7.7766054607e-02 -3.3164965057e-02 +4.5678861127e-02 9.6095229524e-02 5.1100000000e-04 0.0000e+00 -1.0000e+00
  1000022  1    4    4    0    0 -6.7153619027e+01 -4.0129653080e+02 -4.3791431541e+02 2.3280501416e+03 2.2500000000e+03 0.0000e+00 0.0000e+00
<mgrwt>
<rscale>  0 0.45767283E+04</rscale>
<asrwt>0</asrwt>
<pdfrwt beam="1">  1        2 0.44293043E+00 0.45767283E+04</pdfrwt>
<pdfrwt beam="2">  1       -2 0.27982599E+00 0.45767283E+04</pdfrwt>
<totfact> 0.65769130E-02</totfact>
</mgrwt>
</event>
<event>
 8      1 +1.2359593e-08 4.66439900e+03 7.81860800e-03 7.88247100e-02
       -2 -1    0    0    0  501 -0.0000000000e+00 +0.0000000000e+00 +2.0546821111e+03 2.0546821111e+03 2.5500000000e-03 0.0000e+00 -1.0000e+00
        2 -1    0    0  501    0 +0.0000000000e+00 -0.0000000000e+00 -2.6472004533e+03 2.6472004533e+03 2.5500000000e-03 0.0000e+00 1.0000e+00
  1000011  2    1    2    0    0 -4.1030362535e+01 -6.0690079577e+02 -3.7561340663e+02 2.3609395125e+03 2.2500973055e+03 2.3378e+02 0.0000e+00
 -1000011  2    1    2    0    0 +4.1030362535e+01 +6.0690079577e+02 -2.1690493556e+02 2.3409430518e+03 2.2501010098e+03 3.0945e+02 0.0000e+00
       11  1    3    3    0    0 +6.6208892021e-02 +6.5176555179e-03 -7.7664662658e-02 1.0226513535e-01 5.1100000000e-04 0.0000e+00 1.0000e+00
  1000022  1    3    3    0    0 -4.1096571427e+01 -6.0690731343e+02 -3.7553574197e+02 2.3608372474e+03 2.2500000000e+03 0.0000e+00 0.0000e+00
      -11  1    4    4    0    0 -8.1899440751e-03 -4.3276667306e-02 -8.2305264238e-02 9.3350750187e-02 5.1100000000e-04 0.0000e+00 -1.0000e+00
  1000022  1    4    4    0    0 +4.1038552479e+01 +6.0694407244e+02 -2.1682263029e+02 2.3408497010e+03 2.2500000000e+03 0.0000e+00 0.0000e+00
<mgrwt>
<rscale>  0 0.46643994E+04</rscale>
<asrwt>0</asrwt>
<pdfrwt beam="1">  1        2 0.40726161E+00 0.46643994E+04</pdfrwt>
<pdfrwt beam="2">  1       -2 0.31610494E+00 0.46643994E+04</pdfrwt>
<totfact> 0.54007988E-02</totfact>
</mgrwt>
</event>
</LesHouchesEvents>
