<LesHouchesEvents version="3.0">
<header>
<!--
#*********************************************************************
#                                                                    *
#                        MadGraph5_aMC@NLO                           *
#                                                                    *
#                           Going Beyond                             *
#                                                                    *
#                   http://madgraph.hep.uiuc.edu                     *
#                   http://madgraph.phys.ucl.ac.be                   *
#                   http://amcatnlo.cern.ch                          *
#                                                                    *
#                     The MadGraph5_aMC@NLO team                     *
#                                                                    *
#....................................................................*
#                                                                    *
# This file contains all the information necessary to reproduce      *
# the events generated:                                              *
#                                                                    *
# 1. software version                                                *
# 2. proc_card          : code generation info including model       *
# 3. param_card         : model primary parameters in the LH format  *
# 4. run_card           : running parameters (collider and cuts)     *
# 5. pythia_card        : present only if pythia has been run        *
# 6. pgs_card           : present only if pgs has been run           *
# 7. delphes_cards      : present only if delphes has been run       *
#                                                                    *
#                                                                    *
#*********************************************************************
-->
<MGVersion>
2.6.6
</MGVersion>
<MG5ProcCard>
<![CDATA[
#************************************************************
#*                     MadGraph5_aMC@NLO                    *
#*                                                          *
#*                *                       *                 *
#*                  *        * *        *                   *
#*                    * * * * 5 * * * *                     *
#*                  *        * *        *                   *
#*                *                       *                 *
#*                                                          *
#*                                                          *
#*         VERSION 2.6.6                 2018-06-28         *
#*                                                          *
#*    The MadGraph5_aMC@NLO Development Team - Find us at   *
#*    https://server06.fynu.ucl.ac.be/projects/madgraph     *
#*                                                          *
#************************************************************
#*                                                          *
#*               Command File for MadGraph5_aMC@NLO         *
#*                                                          *
#*     run as ./bin/mg5_aMC  filename                       *
#*                                                          *
#************************************************************
set default_unset_couplings 99
set group_subprocesses Auto
set ignore_six_quark_processes False
set loop_optimized_output True
set loop_color_flows False
set gauge unitary
set complex_mass_scheme False
set max_npoint_for_channel 0
import model FreezeInLeptons
define p = g u c d s u~ c~ d~ s~
define j = g u c d s u~ c~ d~ s~
define l+ = e+ mu+
define l- = e- mu-
define vl = ve vm vt
define vl~ = ve~ vm~ vt~
generate p p > ~he ~HE, (~he > l- ~s0), (~HE > l+ ~s0)
output FIMP_leptons_varying_width_bigmdiff_wFtrack_corrected_varymassd\
iff
]]>
</MG5ProcCard>
<MGProcCard>
#*********************************************************************
#                        MadGraph/MadEvent                           *
#                   http://madgraph.hep.uiuc.edu                     *
#                                                                    *
#                          proc_card.dat                             *
#*********************************************************************
#                                                                    *
#            This Files is generated by MADGRAPH 5                   *
#                                                                    *
# WARNING: This Files is generated for MADEVENT (compatibility issue)*
#          This files is NOT a valid MG4 proc_card.dat               *
#          Running this in MG4 will NEVER reproduce the result of MG5*
#                                                                    *
#*********************************************************************
#*********************************************************************
# Process(es) requested : mg2 input                                  *
#*********************************************************************
# Begin PROCESS # This is TAG. Do not modify this line
p p > ~he ~HE , (~he > l- ~s0) , (~HE > l+ ~s0)           #Process
# Be carefull the coupling are here in MG5 convention
          
end_coup           # End the couplings input

done               # this tells MG there are no more procs
# End PROCESS  # This is TAG. Do not modify this line
#*********************************************************************
# Model information                                                  *
#*********************************************************************
# Begin MODEL  # This is TAG. Do not modify this line
FreezeInLeptons
# End   MODEL  # This is TAG. Do not modify this line
#*********************************************************************
# Start multiparticle definitions                                    *
#*********************************************************************
# Begin MULTIPARTICLES # This is TAG. Do not modify this line

# End  MULTIPARTICLES # This is TAG. Do not modify this line
</MGProcCard>
<MGRunCard>
<![CDATA[
#*********************************************************************
#                       MadGraph5_aMC@NLO                            *
#                                                                    *
#                     run_card.dat MadEvent                          *
#                                                                    *
#  This file is used to set the parameters of the run.               *
#                                                                    *
#  Some notation/conventions:                                        *
#                                                                    *
#   Lines starting with a '# ' are info or comments                  *
#                                                                    *
#   mind the format:   value    = variable     ! comment             *
#                                                                    *
#   To display more options, you can type the command:               *
#      update full_run_card                                          *
#*********************************************************************
#
#*******************                                                 
# Running parameters
#*******************                                                 
#                                                                    
#*********************************************************************
# Tag name for the run (one word)                                    *
#*********************************************************************
  tag_1     = run_tag ! name of the run 
#*********************************************************************
# Number of events and rnd seed                                      *
# Warning: Do not generate more than 1M events in a single run       *
#*********************************************************************
#  10000 = nevents ! Number of unweighted events requested 
  1000 = nevents ! Number of unweighted events requested
 21 = iseed   ! rnd seed (0=assigned automatically=default))
#*********************************************************************
# Collider type and energy                                           *
# lpp: 0=No PDF, 1=proton, -1=antiproton, 2=photon from proton,      *
#                                         3=photon from electron     *
#*********************************************************************
     1        = lpp1    ! beam 1 type 
     1        = lpp2    ! beam 2 type
     6500.0     = ebeam1  ! beam 1 total energy in GeV
     6500.0     = ebeam2  ! beam 2 total energy in GeV
# To see polarised beam options: type "update beam_pol"
#*********************************************************************
# PDF CHOICE: this automatically fixes also alpha_s and its evol.    *
#*********************************************************************
     nn23lo1    = pdlabel     ! PDF set                                     
     230000    = lhaid     ! if pdlabel=lhapdf, this is the lhapdf number
# To see heavy ion options: type "update ion_pdf"
#*********************************************************************
# Renormalization and factorization scales                           *
#*********************************************************************
 False = fixed_ren_scale  ! if .true. use fixed ren scale
 False        = fixed_fac_scale  ! if .true. use fixed fac scale
 91.188  = scale            ! fixed ren scale
 91.188  = dsqrt_q2fact1    ! fixed fact scale for pdf1
 91.188  = dsqrt_q2fact2    ! fixed fact scale for pdf2
 -1 = dynamical_scale_choice ! Choose one of the preselected dynamical choices
 1.0  = scalefact        ! scale factor for event-by-event scales
#*********************************************************************
# Type and output format
#*********************************************************************
  False     = gridpack  !True = setting up the grid pack
  1.0 = time_of_flight ! threshold (in mm) below which the invariant livetime is not written (-1 means not written)
  3.0 = lhe_version       ! Change the way clustering information pass to shower.        
  True = clusinfo         ! include clustering tag in output
  average =  event_norm       ! average/sum. Normalization of the weight in the LHEF

#*********************************************************************
# Matching parameter (MLM only)
#*********************************************************************
 0 = ickkw            ! 0 no matching, 1 MLM
 1.0 = alpsfact         ! scale factor for QCD emission vx
 False = chcluster        ! cluster only according to channel diag
 4 = asrwgtflavor     ! highest quark flavor for a_s reweight
 False  = auto_ptj_mjj  ! Automatic setting of ptj and mjj if xqcut >0
                                   ! (turn off for VBF and single top processes) 
 0.0   = xqcut   ! minimum kt jet measure between partons
#*********************************************************************
#
#*********************************************************************
# handling of the helicities:
#  0: sum over all helicities
#  1: importance sampling over helicities
#*********************************************************************
   0  = nhel          ! using helicities importance sampling or not.
#*********************************************************************
# Generation bias, check the wiki page below for more information:   *
#  'cp3.irmp.ucl.ac.be/projects/madgraph/wiki/LOEventGenerationBias' *
#*********************************************************************
 None = bias_module  ! Bias type of bias, [None, ptj_bias, -custom_folder-]
 {} = bias_parameters ! Specifies the parameters of the module.
#
#*******************************                                                 
# Parton level cuts definition *
#*******************************                                     
#                                                                    
#
#*********************************************************************
# BW cutoff (M+/-bwcutoff*Gamma) ! Define on/off-shell for "$" and decay  
#*********************************************************************
  15.0  = bwcutoff      ! (M+/-bwcutoff*Gamma)
#*********************************************************************
# Apply pt/E/eta/dr/mij/kt_durham cuts on decay products or not
# (note that etmiss/ptll/ptheavy/ht/sorted cuts always apply)
#*********************************************************************
   False  = cut_decays    ! Cut decay products 
#*********************************************************************
# Standard Cuts                                                      *
#*********************************************************************
# Minimum and maximum pt's (for max, -1 means no cut)                *
#*********************************************************************
 20.0  = ptj       ! minimum pt for the jets 
 0.0  = ptb       ! minimum pt for the b 
 10.0  = pta       ! minimum pt for the photons 
 10.0  = ptl       ! minimum pt for the charged leptons 
 0.0  = misset    ! minimum missing Et (sum of neutrino's momenta)
 -1.0  = ptjmax    ! maximum pt for the jets
 -1.0  = ptbmax    ! maximum pt for the b
 -1.0  = ptamax    ! maximum pt for the photons
 -1.0  = ptlmax    ! maximum pt for the charged leptons
 -1.0  = missetmax ! maximum missing Et (sum of neutrino's momenta)
 {} = pt_min_pdg ! pt cut for other particles (use pdg code). Applied on particle and anti-particle
 {}	= pt_max_pdg ! pt cut for other particles (syntax e.g. {6: 100, 25: 50}) 
#
# For display option for energy cut in the partonic center of mass frame type 'update ecut'
#
#*********************************************************************
# Maximum and minimum absolute rapidity (for max, -1 means no cut)   *
#*********************************************************************
  5.0 = etaj    ! max rap for the jets 
  -1.0  = etab    ! max rap for the b
 2.5  = etaa    ! max rap for the photons 
 2.5  = etal    ! max rap for the charged leptons 
 0.0  = etajmin ! min rap for the jets
 0.0  = etabmin ! min rap for the b
 0.0  = etaamin ! min rap for the photons
 0.0  = etalmin ! main rap for the charged leptons
 {} = eta_min_pdg ! rap cut for other particles (use pdg code). Applied on particle and anti-particle
 {} = eta_max_pdg ! rap cut for other particles (syntax e.g. {6: 2.5, 23: 5})
#*********************************************************************
# Minimum and maximum DeltaR distance                                *
#*********************************************************************
 0.4 = drjj    ! min distance between jets 
 0.0   = drbb    ! min distance between b's 
 0.4 = drll    ! min distance between leptons 
 0.4 = draa    ! min distance between gammas 
 0.0   = drbj    ! min distance between b and jet 
 0.4 = draj    ! min distance between gamma and jet 
 0.4 = drjl    ! min distance between jet and lepton 
 0.0   = drab    ! min distance between gamma and b 
 0.0   = drbl    ! min distance between b and lepton 
 0.4 = dral    ! min distance between gamma and lepton 
 -1.0  = drjjmax ! max distance between jets
 -1.0  = drbbmax ! max distance between b's
 -1.0  = drllmax ! max distance between leptons
 -1.0  = draamax ! max distance between gammas
 -1.0  = drbjmax ! max distance between b and jet
 -1.0  = drajmax ! max distance between gamma and jet
 -1.0  = drjlmax ! max distance between jet and lepton
 -1.0  = drabmax ! max distance between gamma and b
 -1.0  = drblmax ! max distance between b and lepton
 -1.0  = dralmax ! maxdistance between gamma and lepton
#*********************************************************************
# Minimum and maximum invariant mass for pairs                       *
# WARNING: for four lepton final state mmll cut require to have      *
#          different lepton masses for each flavor!                  *           
#*********************************************************************
 0.0   = mmjj    ! min invariant mass of a jet pair 
 0.0   = mmbb    ! min invariant mass of a b pair 
 0.0   = mmaa    ! min invariant mass of gamma gamma pair
 0.0   = mmll    ! min invariant mass of l+l- (same flavour) lepton pair
 -1.0  = mmjjmax ! max invariant mass of a jet pair
 -1.0  = mmbbmax ! max invariant mass of a b pair
 -1.0  = mmaamax ! max invariant mass of gamma gamma pair
 -1.0  = mmllmax ! max invariant mass of l+l- (same flavour) lepton pair
 {} = mxx_min_pdg ! min invariant mass of a pair of particles X/X~ (e.g. {6:250})
 {'default': False} = mxx_only_part_antipart ! if True the invariant mass is applied only 
                       ! to pairs of particle/antiparticle and not to pairs of the same pdg codes.  
#*********************************************************************
# Minimum and maximum invariant mass for all letpons                 *
#*********************************************************************
 0.0   = mmnl    ! min invariant mass for all letpons (l+- and vl) 
 -1.0  = mmnlmax ! max invariant mass for all letpons (l+- and vl) 
#*********************************************************************
# Minimum and maximum pt for 4-momenta sum of leptons                *
#*********************************************************************
 0.0   = ptllmin  ! Minimum pt for 4-momenta sum of leptons(l and vl)
 -1.0  = ptllmax  ! Maximum pt for 4-momenta sum of leptons(l and vl)
#*********************************************************************
# Inclusive cuts                                                     *
#*********************************************************************
 0.0  = ptheavy   ! minimum pt for at least one heavy final state
 0.0  = xptj ! minimum pt for at least one jet  
 0.0  = xptb ! minimum pt for at least one b 
 0.0  = xpta ! minimum pt for at least one photon 
 0.0  = xptl ! minimum pt for at least one charged lepton 
#*********************************************************************
# Control the pt's of the jets sorted by pt                          *
#*********************************************************************
 0.0   = ptj1min ! minimum pt for the leading jet in pt
 0.0   = ptj2min ! minimum pt for the second jet in pt
 0.0   = ptj3min ! minimum pt for the third jet in pt
 0.0   = ptj4min ! minimum pt for the fourth jet in pt
 -1.0  = ptj1max ! maximum pt for the leading jet in pt 
 -1.0  = ptj2max ! maximum pt for the second jet in pt
 -1.0  = ptj3max ! maximum pt for the third jet in pt
 -1.0  = ptj4max ! maximum pt for the fourth jet in pt
 0   = cutuse  ! reject event if fails any (0) / all (1) jet pt cuts
#*********************************************************************
# Control the pt's of leptons sorted by pt                           *
#*********************************************************************
 0.0   = ptl1min ! minimum pt for the leading lepton in pt
 0.0   = ptl2min ! minimum pt for the second lepton in pt
 0.0   = ptl3min ! minimum pt for the third lepton in pt
 0.0   = ptl4min ! minimum pt for the fourth lepton in pt
 -1.0  = ptl1max ! maximum pt for the leading lepton in pt 
 -1.0  = ptl2max ! maximum pt for the second lepton in pt
 -1.0  = ptl3max ! maximum pt for the third lepton in pt
 -1.0  = ptl4max ! maximum pt for the fourth lepton in pt
#*********************************************************************
# Control the Ht(k)=Sum of k leading jets                            *
#*********************************************************************
 0.0   = htjmin ! minimum jet HT=Sum(jet pt)
 -1.0  = htjmax ! maximum jet HT=Sum(jet pt)
 0.0   = ihtmin  !inclusive Ht for all partons (including b)
 -1.0  = ihtmax  !inclusive Ht for all partons (including b)
 0.0   = ht2min ! minimum Ht for the two leading jets
 0.0   = ht3min ! minimum Ht for the three leading jets
 0.0   = ht4min ! minimum Ht for the four leading jets
 -1.0  = ht2max ! maximum Ht for the two leading jets
 -1.0  = ht3max ! maximum Ht for the three leading jets
 -1.0  = ht4max ! maximum Ht for the four leading jets
#***********************************************************************
# Photon-isolation cuts, according to hep-ph/9801442                   *
# When ptgmin=0, all the other parameters are ignored                  *
# When ptgmin>0, pta and draj are not going to be used                 *
#***********************************************************************
 0.0 = ptgmin ! Min photon transverse momentum
 0.4 = R0gamma ! Radius of isolation code
 1.0 = xn ! n parameter of eq.(3.4) in hep-ph/9801442
 1.0 = epsgamma ! epsilon_gamma parameter of eq.(3.4) in hep-ph/9801442
 True = isoEM ! isolate photons from EM energy (photons and leptons)
#*********************************************************************
# WBF cuts                                                           *
#*********************************************************************
 0.0   = xetamin ! minimum rapidity for two jets in the WBF case  
 0.0   = deltaeta ! minimum rapidity for two jets in the WBF case 
#***********************************************************************
# Turn on either the ktdurham or ptlund cut to activate                *
# CKKW(L) merging with Pythia8 [arXiv:1410.3012, arXiv:1109.4829]      *
#***********************************************************************
 -1.0  =  ktdurham        
 0.4   =  dparameter
 -1.0  =  ptlund
 1, 2, 3, 4, 5, 6, 21  =  pdgs_for_merging_cut ! PDGs for two cuts above   
#*********************************************************************
# maximal pdg code for quark to be considered as a light jet         *
# (otherwise b cuts are applied)                                     *
#*********************************************************************
 4 = maxjetflavor    ! Maximum jet pdg code
#*********************************************************************
#
#*********************************************************************
# Store info for systematics studies                                 *
# WARNING: Do not use for interference type of computation           *
#*********************************************************************
   True  = use_syst      ! Enable systematics studies
#
systematics = systematics_program ! none, systematics [python], SysCalc [depreceted, C++]
['--mur=0.5,1,2', '--muf=0.5,1,2', '--pdf=errorset'] = systematics_arguments ! see: https://cp3.irmp.ucl.ac.be/projects/madgraph/wiki/Systematics#Systematicspythonmodule
# Syscalc is deprecated but to see the associate options type'update syscalc'
]]>
</MGRunCard>
<slha>
######################################################################
## PARAM_CARD AUTOMATICALY GENERATED BY MG5                       ####
######################################################################
###################################
## INFORMATION FOR CKMBLOCK
###################################
BLOCK CKMBLOCK # 
      1 2.277360e-01 # cabi
###################################
## INFORMATION FOR FRBLOCK
###################################
BLOCK FRBLOCK # 
      1 1.000000e+02 # qs
      2 2.000000e-05 # yheer
      3 2.000000e-05 # yhemur
      4 2.000000e-05 # yhetar
      5 2.000000e-02 # lams0h
      6 1.000000e-01 # lams0
###################################
## INFORMATION FOR MASS
###################################
BLOCK MASS # 
      1 5.040000e-03 # md
      2 2.550000e-03 # mu
      3 1.010000e-01 # ms
      4 1.270000e+00 # mc
      5 4.700000e+00 # mb
      6 1.720000e+02 # mt
      11 5.110000e-04 # me
      13 1.056600e-01 # mmu
      15 1.777000e+00 # mta
      23 9.118760e+01 # mz
      25 1.250000e+02 # mh
      255 1.250000e+02 # ms0
      1000101 125.1 # mhe
      12 0.000000e+00 # ve : 0.0
      14 0.000000e+00 # vm : 0.0
      16 0.000000e+00 # vt : 0.0
      21 0.000000e+00 # g : 0.0
      22 0.000000e+00 # a : 0.0
      24 7.982436e+01 # w+ : cmath.sqrt(mz__exp__2/2. + cmath.sqrt(mz__exp__4/4. - (aew*cmath.pi*mz__exp__2)/(gf*sqrt__2)))
###################################
## INFORMATION FOR SMINPUTS
###################################
BLOCK SMINPUTS # 
      1 1.279000e+02 # aewm1
      2 1.166370e-05 # gf
      3 1.184000e-01 # as
###################################
## INFORMATION FOR YUKAWA
###################################
BLOCK YUKAWA # 
      1 5.040000e-03 # ymdo
      2 2.550000e-03 # ymup
      3 1.010000e-01 # yms
      4 1.270000e+00 # ymc
      5 4.700000e+00 # ymb
      6 1.720000e+02 # ymt
      11 5.110000e-04 # yme
      13 1.056600e-01 # ymm
      15 1.777000e+00 # ymtau
###################################
## INFORMATION FOR DECAY
###################################
DECAY 6 1.508336e+00 # wt
DECAY 23 2.495200e+00 # wz
DECAY 24 2.085000e+00 # ww
DECAY 25 5.000000e-03 # wh
DECAY 255 0.000000e+00 # ws0
DECAY 1000101 2.000000e-15 # whe
DECAY 1 0.000000e+00 # d : 0.0
DECAY 2 0.000000e+00 # u : 0.0
DECAY 3 0.000000e+00 # s : 0.0
DECAY 4 0.000000e+00 # c : 0.0
DECAY 5 0.000000e+00 # b : 0.0
DECAY 11 0.000000e+00 # e- : 0.0
DECAY 12 0.000000e+00 # ve : 0.0
DECAY 13 0.000000e+00 # mu- : 0.0
DECAY 14 0.000000e+00 # vm : 0.0
DECAY 15 0.000000e+00 # ta- : 0.0
DECAY 16 0.000000e+00 # vt : 0.0
DECAY 21 0.000000e+00 # g : 0.0
DECAY 22 0.000000e+00 # a : 0.0
###################################
## INFORMATION FOR QNUMBERS 255
###################################
BLOCK QNUMBERS 255 #   ~s0
      1 0 # 3 times electric charge
      2 1 # number of spin states (2s+1)
      3 1 # colour rep (1: singlet, 3: triplet, 8: octet)
      4 0 # particle/antiparticle distinction (0=own anti)
###################################
## INFORMATION FOR QNUMBERS 1000101
###################################
BLOCK QNUMBERS 1000101 #   ~he
      1 -3 # 3 times electric charge
      2 2 # number of spin states (2s+1)
      3 1 # colour rep (1: singlet, 3: triplet, 8: octet)
      4 1 # particle/antiparticle distinction (0=own anti)
####################################
## INFORMATION FOR QNUMBERS -1000101
####################################
BLOCK QNUMBERS -1000101 #   ~he
       1 3 # 3 times electric charge
       2 2 # number of spin states (2s+1)
       3 1 # colour rep (1: singlet, 3: triplet, 8: octet)
       4 1 # particle/antiparticle distinction (0=own anti)
</slha>
<MGGenerationInfo>
#  Number of Events        :       1000
#  Integrated weight (pb)  :       0.1619832
</MGGenerationInfo>
</header>
<init>
2212 2212 6.500000e+03 6.500000e+03 0 0 247000 247000 -4 1
1.619832e-01 7.874351e-04 1.619832e-01 1
<generator name='MadGraph5_aMC@NLO' version='2.6.6'>please cite 1405.0301 </generator>
</init>
<event>
 8      1 +1.6198320e-01 4.16697600e+02 7.81860800e-03 1.03814700e-01
       -1 -1    0    0    0  501 -0.0000000000e+00 +0.0000000000e+00 +7.1217186404e+01 7.1217186583e+01 5.0400000000e-03 0.0000e+00 -1.0000e+00
        1 -1    0    0  501    0 +0.0000000000e+00 -0.0000000000e+00 -6.0953290797e+02 6.0953290799e+02 5.0400000000e-03 0.0000e+00 1.0000e+00
  1000101  2    1    2    0    0 +1.4950484447e+02 +2.5586038674e+01 -1.5653030369e+02 2.5131273556e+02 1.2510000473e+02 9.1187e+01 0.0000e+00
 -1000101  2    1    2    0    0 -1.4950484447e+02 -2.5586038674e+01 -3.8178541787e+02 4.2943735901e+02 1.2509994453e+02 2.9357e+01 0.0000e+00
       11  1    3    3    0    0 +1.0814216925e-02 -2.6559244762e-02 -1.3376722241e-01 1.3680742554e-01 5.1100000000e-04 0.0000e+00 1.0000e+00
      255  1    3    3    0    0 +1.4949403026e+02 +2.5612597919e+01 -1.5639653647e+02 2.5117592814e+02 1.2500000000e+02 0.0000e+00 0.0000e+00
      -11  1    4    4    0    0 -2.6479674173e-02 +2.2675637543e-03 +1.0715808091e-02 2.8660157968e-02 5.1100000000e-04 0.0000e+00 -1.0000e+00
      255  1    4    4    0    0 -1.4947836480e+02 -2.5588306238e+01 -3.8179613368e+02 4.2940869886e+02 1.2500000000e+02 0.0000e+00 0.0000e+00
<mgrwt>
<rscale>  0 0.41669758E+03</rscale>
<asrwt>0</asrwt>
<pdfrwt beam="1">  1        1 0.93774290E-01 0.41669758E+03</pdfrwt>
<pdfrwt beam="2">  1       -1 0.10956491E-01 0.41669758E+03</pdfrwt>
<totfact> 0.18241966E+03</totfact>
</mgrwt>
</event>
<event>
 8      1 +1.6198320e-01 3.60498400e+02 7.81860800e-03 1.05838700e-01
        2 -1    0    0  501    0 +0.0000000000e+00 +0.0000000000e+00 +1.3097784133e+03 1.3097784133e+03 2.5500000000e-03 0.0000e+00 1.0000e+00
       -2 -1    0    0    0  501 -0.0000000000e+00 -0.0000000000e+00 -2.4805554190e+01 2.4805554321e+01 2.5500000000e-03 0.0000e+00 -1.0000e+00
  1000101  2    1    2    0    0 +5.4090806241e+01 +6.5906735549e+01 +2.8032317637e+02 3.1859160692e+02 1.2510002270e+02 6.7897e+01 0.0000e+00
 -1000101  2    1    2    0    0 -5.4090806241e+01 -6.5906735549e+01 +1.0046496827e+03 1.0159923607e+03 1.2509987555e+02 1.4431e+01 0.0000e+00
       11  1    3    3    0    0 +9.4952271692e-02 -3.4767318591e-02 +1.7163670454e-01 1.9920873427e-01 5.1100000000e-04 0.0000e+00 1.0000e+00
      255  1    3    3    0    0 +5.3995853970e+01 +6.5941502867e+01 +2.8015153966e+02 3.1839239818e+02 1.2500000000e+02 0.0000e+00 0.0000e+00
      -11  1    4    4    0    0 -1.1912510324e-02 -4.0766915811e-02 +5.2713400514e-02 6.7696477325e-02 5.1100000000e-04 0.0000e+00 -1.0000e+00
      255  1    4    4    0    0 -5.4078893731e+01 -6.5865968633e+01 +1.0045969693e+03 1.0159246642e+03 1.2500000000e+02 0.0000e+00 0.0000e+00
<mgrwt>
<rscale>  0 0.36049843E+03</rscale>
<asrwt>0</asrwt>
<pdfrwt beam="1">  1        2 0.20150441E+00 0.36049843E+03</pdfrwt>
<pdfrwt beam="2">  1       -2 0.38162383E-02 0.36049843E+03</pdfrwt>
<totfact> 0.51311172E+03</totfact>
</mgrwt>
</event>
<event>
 8      1 +1.6198320e-01 9.56864300e+02 7.81860800e-03 9.35716300e-02
       -2 -1    0    0    0  501 -0.0000000000e+00 +0.0000000000e+00 +4.6184127314e+02 4.6184127315e+02 2.5500000000e-03 0.0000e+00 1.0000e+00
        2 -1    0    0  501    0 +0.0000000000e+00 -0.0000000000e+00 -4.9561901682e+02 4.9561901682e+02 2.5500000000e-03 0.0000e+00 -1.0000e+00
  1000101  2    1    2    0    0 +1.2362956963e+02 -3.8894905458e+02 +1.9930513726e+02 4.7110312661e+02 1.2509988255e+02 1.7443e+02 0.0000e+00
 -1000101  2    1    2    0    0 -1.2362956963e+02 +3.8894905458e+02 -2.3308288094e+02 4.8635716336e+02 1.2510005364e+02 8.8684e+01 0.0000e+00
       11  1    3    3    0    0 -2.8344415950e-02 -1.8499491933e-01 +1.2212202140e-01 2.2347388063e-01 5.1100000000e-04 0.0000e+00 1.0000e+00
      255  1    3    3    0    0 +1.2365791405e+02 -3.8876405966e+02 +1.9918301524e+02 4.7087965273e+02 1.2500000000e+02 0.0000e+00 0.0000e+00
      -11  1    4    4    0    0 -1.8675041831e-01 +4.7814399169e-01 -3.7119681966e-01 6.3347039045e-01 5.1100000000e-04 0.0000e+00 -1.0000e+00
      255  1    4    4    0    0 -1.2344281921e+02 +3.8847091059e+02 -2.3271168412e+02 4.8572369297e+02 1.2500000000e+02 0.0000e+00 0.0000e+00
<mgrwt>
<rscale>  0 0.95686429E+03</rscale>
<asrwt>0</asrwt>
<pdfrwt beam="1">  1        2 0.76249079E-01 0.95686429E+03</pdfrwt>
<pdfrwt beam="2">  1       -2 0.71052504E-01 0.95686429E+03</pdfrwt>
<totfact> 0.11208736E+02</totfact>
</mgrwt>
</event>
<event>
 8      1 +1.6198320e-01 3.17058500e+02 7.81860800e-03 1.07701100e-01
       -1 -1    0    0    0  501 -0.0000000000e+00 +0.0000000000e+00 +3.0057468888e+01 3.0057469311e+01 5.0400000000e-03 0.0000e+00 -1.0000e+00
        1 -1    0    0  501    0 +0.0000000000e+00 -0.0000000000e+00 -8.3611570804e+02 8.3611570805e+02 5.0400000000e-03 0.0000e+00 1.0000e+00
  1000101  2    1    2    0    0 -8.3414410241e+01 -2.5780132727e+01 -5.2081801388e+02 5.4270062505e+02 1.2509990314e+02 2.1873e+02 0.0000e+00
 -1000101  2    1    2    0    0 +8.3414410241e+01 +2.5780132727e+01 -2.8524022527e+02 3.2347255231e+02 1.2509966791e+02 4.6125e+01 0.0000e+00
       11  1    3    3    0    0 -5.3012100502e-02 -7.4670439524e-02 -7.1637689989e-01 7.2220639789e-01 5.1100000000e-04 0.0000e+00 1.0000e+00
      255  1    3    3    0    0 -8.3361398140e+01 -2.5705462288e+01 -5.2010163698e+02 5.4197841865e+02 1.2500000000e+02 0.0000e+00 0.0000e+00
      -11  1    4    4    0    0 +4.5633140263e-02 -7.4255458122e-02 -2.5117770259e-01 2.6586981015e-01 5.1100000000e-04 0.0000e+00 -1.0000e+00
      255  1    4    4    0    0 +8.3368777101e+01 +2.5854388185e+01 -2.8498904756e+02 3.2320668250e+02 1.2500000000e+02 0.0000e+00 0.0000e+00
<mgrwt>
<rscale>  0 0.31705849E+03</rscale>
<asrwt>0</asrwt>
<pdfrwt beam="1">  1        1 0.12863317E+00 0.31705849E+03</pdfrwt>
<pdfrwt beam="2">  1       -1 0.46242267E-02 0.31705849E+03</pdfrwt>
<totfact> 0.42640354E+03</totfact>
</mgrwt>
</event>
<event>
 8      1 +1.6198320e-01 2.97656700e+02 7.81860800e-03 1.08641800e-01
        2 -1    0    0  501    0 +0.0000000000e+00 +0.0000000000e+00 +3.2545380058e+02 3.2545380059e+02 2.5500000000e-03 0.0000e+00 1.0000e+00
       -2 -1    0    0    0  501 -0.0000000000e+00 -0.0000000000e+00 -6.8058444045e+01 6.8058444092e+01 2.5500000000e-03 0.0000e+00 -1.0000e+00
  1000101  2    1    2    0    0 +4.1431118222e+01 -2.6487824640e+01 +2.1316085798e+02 2.5200338047e+02 1.2509999993e+02 1.2531e+02 0.0000e+00
 -1000101  2    1    2    0    0 -4.1431118222e+01 +2.6487824640e+01 +4.4234498559e+01 1.4150886422e+02 1.2509966178e+02 2.2532e+01 0.0000e+00
       11  1    3    3    0    0 -7.4183468886e-03 -8.8009199633e-02 +2.8821252995e-01 3.0144215802e-01 5.1100000000e-04 0.0000e+00 1.0000e+00
      255  1    3    3    0    0 +4.1438536569e+01 -2.6399815441e+01 +2.1287264545e+02 2.5170193831e+02 1.2500000000e+02 0.0000e+00 0.0000e+00
      -11  1    4    4    0    0 +1.0617167542e-02 -6.4535694267e-02 +6.7479614281e-02 9.3975207084e-02 5.1100000000e-04 0.0000e+00 -1.0000e+00
      255  1    4    4    0    0 -4.1441735390e+01 +2.6552360335e+01 +4.4167018945e+01 1.4141488901e+02 1.2500000000e+02 0.0000e+00 0.0000e+00
<mgrwt>
<rscale>  0 0.29765671E+03</rscale>
<asrwt>0</asrwt>
<pdfrwt beam="1">  1        2 0.50069816E-01 0.29765671E+03</pdfrwt>
<pdfrwt beam="2">  1       -2 0.10470530E-01 0.29765671E+03</pdfrwt>
<totfact> 0.61485602E+03</totfact>
</mgrwt>
</event>
<event>
 8      1 +1.6198320e-01 3.70948600e+02 7.81860800e-03 1.05433100e-01
       -2 -1    0    0    0  501 -0.0000000000e+00 +0.0000000000e+00 +1.1666626373e+02 1.1666626376e+02 2.5500000000e-03 0.0000e+00 -1.0000e+00
        2 -1    0    0  501    0 +0.0000000000e+00 -0.0000000000e+00 -2.9486429797e+02 2.9486429798e+02 2.5500000000e-03 0.0000e+00 1.0000e+00
  1000101  2    1    2    0    0 -1.2069383383e+02 -2.8898201386e+00 -1.6078532211e+02 2.3680640829e+02 1.2509997048e+02 5.1920e+01 0.0000e+00
 -1000101  2    1    2    0    0 +1.2069383383e+02 +2.8898201386e+00 -1.7412712124e+01 1.7472415344e+02 1.2509985878e+02 1.8255e+02 0.0000e+00
       11  1    3    3    0    0 -1.6273560597e-01 +8.4722242915e-02 -1.7134525455e-01 2.5103823070e-01 5.1100000000e-04 0.0000e+00 1.0000e+00
      255  1    3    3    0    0 -1.2053109823e+02 -2.9745423816e+00 -1.6061397686e+02 2.3655537006e+02 1.2500000000e+02 0.0000e+00 0.0000e+00
      -11  1    4    4    0    0 +1.1712085567e-01 +7.5085938915e-02 +5.1794190651e-02 1.4845232353e-01 5.1100000000e-04 0.0000e+00 -1.0000e+00
      255  1    4    4    0    0 +1.2057671298e+02 +2.8147341997e+00 -1.7464506315e+01 1.7457570112e+02 1.2500000000e+02 0.0000e+00 0.0000e+00
<mgrwt>
<rscale>  0 0.37094860E+03</rscale>
<asrwt>0</asrwt>
<pdfrwt beam="1">  1        2 0.45363738E-01 0.37094860E+03</pdfrwt>
<pdfrwt beam="2">  1       -2 0.17948656E-01 0.37094860E+03</pdfrwt>
<totfact> 0.28333610E+03</totfact>
</mgrwt>
</event>
<event>
 8      1 +1.6198320e-01 5.16240900e+02 7.81860800e-03 1.00962500e-01
        2 -1    0    0  501    0 +0.0000000000e+00 +0.0000000000e+00 +2.4965585633e+02 2.4965585634e+02 2.5500000000e-03 0.0000e+00 1.0000e+00
       -2 -1    0    0    0  501 -0.0000000000e+00 -0.0000000000e+00 -2.6687208249e+02 2.6687208250e+02 2.5500000000e-03 0.0000e+00 -1.0000e+00
  1000101  2    1    2    0    0 -2.1402146528e+01 +1.7596893540e+02 -1.4851813838e+02 2.6292730593e+02 1.2510001069e+02 3.2546e+01 0.0000e+00
 -1000101  2    1    2    0    0 +2.1402146528e+01 -1.7596893540e+02 +1.3130191222e+02 2.5360063291e+02 1.2509984317e+02 5.9859e+00 0.0000e+00
       11  1    3    3    0    0 +7.8098831008e-02 +1.2851116972e-01 -6.4383744901e-02 1.6358507229e-01 5.1100000000e-04 0.0000e+00 1.0000e+00
      255  1    3    3    0    0 -2.1480245359e+01 +1.7584042423e+02 -1.4845375464e+02 2.6276372086e+02 1.2500000000e+02 0.0000e+00 0.0000e+00
      -11  1    4    4    0    0 +6.3023687609e-02 -5.7475724737e-02 +1.4868456800e-01 1.7141413599e-01 5.1100000000e-04 0.0000e+00 -1.0000e+00
      255  1    4    4    0    0 +2.1339122841e+01 -1.7591145967e+02 +1.3115322765e+02 2.5342921878e+02 1.2500000000e+02 0.0000e+00 0.0000e+00
<mgrwt>
<rscale>  0 0.51624094E+03</rscale>
<asrwt>0</asrwt>
<pdfrwt beam="1">  1        2 0.38408593E-01 0.51624094E+03</pdfrwt>
<pdfrwt beam="2">  1       -2 0.41057244E-01 0.51624094E+03</pdfrwt>
<totfact> 0.76080522E+02</totfact>
</mgrwt>
</event>
<event>
 8      1 +1.6198320e-01 2.65776800e+02 7.81860800e-03 1.10372100e-01
       -2 -1    0    0    0  501 -0.0000000000e+00 +0.0000000000e+00 +2.4888450043e+02 2.4888450045e+02 2.5500000000e-03 0.0000e+00 -1.0000e+00
        2 -1    0    0  501    0 +0.0000000000e+00 -0.0000000000e+00 -7.0953923579e+01 7.0953923625e+01 2.5500000000e-03 0.0000e+00 1.0000e+00
  1000101  2    1    2    0    0 +1.2873500068e+01 -2.5400706636e+01 +4.7305903196e+01 1.3674354222e+02 1.2510005979e+02 2.5929e+02 0.0000e+00
 -1000101  2    1    2    0    0 -1.2873500068e+01 +2.5400706636e+01 +1.3062467366e+02 1.8309488185e+02 1.2509998997e+02 6.1234e+01 0.0000e+00
       11  1    3    3    0    0 -7.8958191179e-02 -3.9759717870e-02 -7.8191887883e-03 8.8750391287e-02 5.1100000000e-04 0.0000e+00 1.0000e+00
      255  1    3    3    0    0 +1.2952458259e+01 -2.5360946918e+01 +4.7313722385e+01 1.3665479183e+02 1.2500000000e+02 0.0000e+00 0.0000e+00
      -11  1    4    4    0    0 +4.2874114560e-02 -5.7102733701e-02 +2.6245380457e-02 7.6078860479e-02 5.1100000000e-04 0.0000e+00 -1.0000e+00
      255  1    4    4    0    0 -1.2916374182e+01 +2.5457809369e+01 +1.3059842828e+02 1.8301880299e+02 1.2500000000e+02 0.0000e+00 0.0000e+00
<mgrwt>
<rscale>  0 0.26577684E+03</rscale>
<asrwt>0</asrwt>
<pdfrwt beam="1">  1        2 0.10915988E-01 0.26577684E+03</pdfrwt>
<pdfrwt beam="2">  1       -2 0.38289923E-01 0.26577684E+03</pdfrwt>
<totfact> 0.36969367E+03</totfact>
</mgrwt>
</event>
<event>
 8      1 +1.6198320e-01 2.94539800e+02 7.81860800e-03 1.08800200e-01
       -2 -1    0    0    0  501 -0.0000000000e+00 +0.0000000000e+00 +9.3420568311e+00 9.3420571791e+00 2.5500000000e-03 0.0000e+00 -1.0000e+00
        2 -1    0    0  501    0 +0.0000000000e+00 -0.0000000000e+00 -2.3215900003e+03 2.3215900003e+03 2.5500000000e-03 0.0000e+00 1.0000e+00
  1000101  2    1    2    0    0 +6.6623693767e+01 +3.8979853317e+01 -1.2270250426e+03 1.2357987777e+03 1.2510003291e+02 4.4468e+01 0.0000e+00
 -1000101  2    1    2    0    0 -6.6623693767e+01 -3.8979853317e+01 -1.0852229008e+03 1.0951332797e+03 1.2510000160e+02 4.6670e+00 0.0000e+00
       11  1    3    3    0    0 +3.8093681940e-02 +1.1917193668e-02 -1.7020350382e+00 1.7025030633e+00 5.1100000000e-04 0.0000e+00 1.0000e+00
      255  1    3    3    0    0 +6.6585600085e+01 +3.8967936123e+01 -1.2253230076e+03 1.2340962747e+03 1.2500000000e+02 0.0000e+00 0.0000e+00
      -11  1    4    4    0    0 -3.3265532661e-02 -1.1691939752e-02 -3.9295237701e-02 5.2798427493e-02 5.1100000000e-04 0.0000e+00 -1.0000e+00
      255  1    4    4    0    0 -6.6590428234e+01 -3.8968161377e+01 -1.0851836056e+03 1.0950804813e+03 1.2500000000e+02 0.0000e+00 0.0000e+00
<mgrwt>
<rscale>  0 0.29453982E+03</rscale>
<asrwt>0</asrwt>
<pdfrwt beam="1">  1        2 0.35716723E+00 0.29453982E+03</pdfrwt>
<pdfrwt beam="2">  1       -2 0.14372414E-02 0.29453982E+03</pdfrwt>
<totfact> 0.62960351E+03</totfact>
</mgrwt>
</event>
<event>
 8      1 +1.6198320e-01 3.78956400e+02 7.81860800e-03 1.05132000e-01
        2 -1    0    0  501    0 +0.0000000000e+00 +0.0000000000e+00 +1.3937452258e+03 1.3937452258e+03 2.5500000000e-03 0.0000e+00 1.0000e+00
       -2 -1    0    0    0  501 -0.0000000000e+00 -0.0000000000e+00 -2.5759358407e+01 2.5759358533e+01 2.5500000000e-03 0.0000e+00 -1.0000e+00
  1000101  2    1    2    0    0 +4.0577812896e+01 +4.6947841966e+01 +2.0427394383e+02 2.4744394576e+02 1.2509997361e+02 2.9706e+01 0.0000e+00
 -1000101  2    1    2    0    0 -4.0577812896e+01 -4.6947841966e+01 +1.1637119235e+03 1.1720606386e+03 1.2510012271e+02 7.6569e+01 0.0000e+00
       11  1    3    3    0    0 -1.5568397868e-02 -4.4632528661e-02 +1.0920785144e-02 4.8517649327e-02 5.1100000000e-04 0.0000e+00 1.0000e+00
      255  1    3    3    0    0 +4.0593381293e+01 +4.6992474495e+01 +2.0426302305e+02 2.4739542811e+02 1.2500000000e+02 0.0000e+00 0.0000e+00
      -11  1    4    4    0    0 -6.9919558061e-03 +1.4814494117e-03 -3.0855257438e-03 7.8015209471e-03 5.1100000000e-04 0.0000e+00 -1.0000e+00
      255  1    4    4    0    0 -4.0570820940e+01 -4.6949323416e+01 +1.1637150091e+03 1.1720528370e+03 1.2500000000e+02 0.0000e+00 0.0000e+00
<mgrwt>
<rscale>  0 0.37895637E+03</rscale>
<asrwt>0</asrwt>
<pdfrwt beam="1">  1        2 0.21442239E+00 0.37895637E+03</pdfrwt>
<pdfrwt beam="2">  1       -2 0.39629773E-02 0.37895637E+03</pdfrwt>
<totfact> 0.43538751E+03</totfact>
</mgrwt>
</event>
<event>
 8      1 +1.6198320e-01 3.36906400e+02 7.81860800e-03 1.06812100e-01
       -1 -1    0    0    0  501 -0.0000000000e+00 +0.0000000000e+00 +3.3339830784e+02 3.3339830788e+02 5.0400000000e-03 0.0000e+00 1.0000e+00
        1 -1    0    0  501    0 +0.0000000000e+00 -0.0000000000e+00 -8.5112832044e+01 8.5112832193e+01 5.0400000000e-03 0.0000e+00 -1.0000e+00
  1000101  2    1    2    0    0 -1.5452726924e+01 +9.0999189557e+01 +4.3572664867e+01 1.6145669262e+02 1.2510014868e+02 3.7564e+01 0.0000e+00
 -1000101  2    1    2    0    0 +1.5452726924e+01 -9.0999189557e+01 +2.0471281093e+02 2.5705444745e+02 1.2510001889e+02 4.3222e+00 0.0000e+00
       11  1    3    3    0    0 +3.1936104331e-02 +4.9175444315e-02 +1.2166706464e-01 1.3506026367e-01 5.1100000000e-04 0.0000e+00 1.0000e+00
      255  1    3    3    0    0 -1.5484663029e+01 +9.0950014112e+01 +4.3450997803e+01 1.6132163236e+02 1.2500000000e+02 0.0000e+00 0.0000e+00
      -11  1    4    4    0    0 +2.3110564909e-02 -8.1335466240e-02 +7.6082782345e-03 8.4898193728e-02 5.1100000000e-04 0.0000e+00 -1.0000e+00
      255  1    4    4    0    0 +1.5429616360e+01 -9.0917854090e+01 +2.0470520265e+02 2.5696954926e+02 1.2500000000e+02 0.0000e+00 0.0000e+00
<mgrwt>
<rscale>  0 0.33690636E+03</rscale>
<asrwt>0</asrwt>
<pdfrwt beam="1">  1        1 0.13094282E-01 0.33690636E+03</pdfrwt>
<pdfrwt beam="2">  1       -1 0.51292047E-01 0.33690636E+03</pdfrwt>
<totfact> 0.17537850E+03</totfact>
</mgrwt>
</event>
<event>
 8      1 +1.6198320e-01 2.58565700e+02 7.81860800e-03 1.10800800e-01
       -2 -1    0    0    0  501 -0.0000000000e+00 +0.0000000000e+00 +1.8922866160e+01 1.8922866332e+01 2.5500000000e-03 0.0000e+00 -1.0000e+00
        2 -1    0    0  501    0 +0.0000000000e+00 -0.0000000000e+00 -8.8327276070e+02 8.8327276070e+02 2.5500000000e-03 0.0000e+00 1.0000e+00
  1000101  2    1    2    0    0 -2.1196596399e+01 -1.9836409488e+01 -4.8407644494e+02 5.0082211361e+02 1.2509998439e+02 1.3781e+02 0.0000e+00
 -1000101  2    1    2    0    0 +2.1196596399e+01 +1.9836409488e+01 -3.8027344960e+02 4.0137351343e+02 1.2510004784e+02 3.9396e+01 0.0000e+00
       11  1    3    3    0    0 -7.6094887697e-02 -7.9663047711e-02 -6.6709820805e-01 6.7613379845e-01 5.1100000000e-04 0.0000e+00 1.0000e+00
      255  1    3    3    0    0 -2.1120501511e+01 -1.9756746440e+01 -4.8340934673e+02 5.0014597981e+02 1.2500000000e+02 0.0000e+00 0.0000e+00
      -11  1    4    4    0    0 +1.9666293559e-02 -7.8002483516e-02 -1.4623398342e-01 1.6690053794e-01 5.1100000000e-04 0.0000e+00 -1.0000e+00
      255  1    4    4    0    0 +2.1176930106e+01 +1.9914411971e+01 -3.8012721562e+02 4.0120661289e+02 1.2500000000e+02 0.0000e+00 0.0000e+00
<mgrwt>
<rscale>  0 0.25856568E+03</rscale>
<asrwt>0</asrwt>
<pdfrwt beam="1">  1        2 0.13588808E+00 0.25856568E+03</pdfrwt>
<pdfrwt beam="2">  1       -2 0.29112109E-02 0.25856568E+03</pdfrwt>
<totfact> 0.13716642E+04</totfact>
</mgrwt>
</event>
<event>
 8      1 +1.6198320e-01 4.99858700e+02 7.81860800e-03 1.01381600e-01
        2 -1    0    0  501    0 +0.0000000000e+00 +0.0000000000e+00 +6.7212066729e+02 6.7212066729e+02 2.5500000000e-03 0.0000e+00 1.0000e+00
       -2 -1    0    0    0  501 -0.0000000000e+00 -0.0000000000e+00 -9.2936719627e+01 9.2936719662e+01 2.5500000000e-03 0.0000e+00 -1.0000e+00
  1000101  2    1    2    0    0 +1.5471135642e+02 -4.3402802036e+00 +5.8179343492e+01 2.0733861206e+02 1.2510004877e+02 9.3158e+01 0.0000e+00
 -1000101  2    1    2    0    0 -1.5471135642e+02 +4.3402802036e+00 +5.2100460417e+02 5.5771877490e+02 1.2509992994e+02 5.1056e+01 0.0000e+00
       11  1    3    3    0    0 -2.9281949992e-02 -2.5416693378e-02 +2.4617069342e-02 4.5931493790e-02 5.1100000000e-04 0.0000e+00 1.0000e+00
      255  1    3    3    0    0 +1.5474063837e+02 -4.3148635102e+00 +5.8154726423e+01 2.0729268056e+02 1.2500000000e+02 0.0000e+00 0.0000e+00
      -11  1    4    4    0    0 +2.5111254278e-03 -3.0303694042e-02 +1.2017866457e-02 3.2700303643e-02 5.1100000000e-04 0.0000e+00 -1.0000e+00
      255  1    4    4    0    0 -1.5471386754e+02 +4.3705838976e+00 +5.2099258630e+02 5.5768607460e+02 1.2500000000e+02 0.0000e+00 0.0000e+00
<mgrwt>
<rscale>  0 0.49985874E+03</rscale>
<asrwt>0</asrwt>
<pdfrwt beam="1">  1        2 0.10340318E+00 0.49985874E+03</pdfrwt>
<pdfrwt beam="2">  1       -2 0.14297957E-01 0.49985874E+03</pdfrwt>
<totfact> 0.16392519E+03</totfact>
</mgrwt>
</event>
<event>
 8      1 +1.6198320e-01 2.94032800e+02 7.81860800e-03 1.08826200e-01
       -3 -1    0    0    0  501 -0.0000000000e+00 +0.0000000000e+00 +1.0968473519e+02 1.0968478169e+02 1.0100000000e-01 0.0000e+00 -1.0000e+00
        3 -1    0    0  501    0 +0.0000000000e+00 -0.0000000000e+00 -1.9705399057e+02 1.9705401646e+02 1.0100000000e-01 0.0000e+00 1.0000e+00
  1000101  2    1    2    0    0 -2.9343057008e+01 +4.2502657339e+00 +3.0704054102e+01 1.3218107849e+02 1.2510003525e+02 1.9548e+01 0.0000e+00
 -1000101  2    1    2    0    0 +2.9343057008e+01 -4.2502657339e+00 -1.1807330949e+02 1.7455771965e+02 1.2510000529e+02 3.2108e+00 0.0000e+00
       11  1    3    3    0    0 +3.3442553038e-02 -3.5313964843e-02 -5.4879163666e-02 7.3331195224e-02 5.1100000000e-04 0.0000e+00 1.0000e+00
      255  1    3    3    0    0 -2.9376499562e+01 +4.2855796987e+00 +3.0758933265e+01 1.3210774730e+02 1.2500000000e+02 0.0000e+00 0.0000e+00
      -11  1    4    4    0    0 -2.4467707924e-02 -8.8435412310e-02 -5.5593376610e-02 1.0728641818e-01 5.1100000000e-04 0.0000e+00 -1.0000e+00
      255  1    4    4    0    0 +2.9367524716e+01 -4.1618303216e+00 -1.1801771611e+02 1.7445043323e+02 1.2500000000e+02 0.0000e+00 0.0000e+00
<mgrwt>
<rscale>  0 0.29403283E+03</rscale>
<asrwt>0</asrwt>
<pdfrwt beam="1">  1        3 0.30316004E-01 0.29403283E+03</pdfrwt>
<pdfrwt beam="2">  1       -3 0.16874580E-01 0.29403283E+03</pdfrwt>
<totfact> 0.81539959E+02</totfact>
</mgrwt>
</event>
<event>
 8      1 +1.6198320e-01 2.67774700e+02 7.81860800e-03 1.10256000e-01
       -2 -1    0    0    0  501 -0.0000000000e+00 +0.0000000000e+00 +2.3053282763e+02 2.3053282764e+02 2.5500000000e-03 0.0000e+00 -1.0000e+00
        2 -1    0    0  501    0 +0.0000000000e+00 -0.0000000000e+00 -7.7758204202e+01 7.7758204244e+01 2.5500000000e-03 0.0000e+00 1.0000e+00
  1000101  2    1    2    0    0 -1.3092280275e+01 -3.3359666042e+01 +4.0135848028e+01 1.3618064890e+02 1.2509999087e+02 9.0776e+01 0.0000e+00
 -1000101  2    1    2    0    0 +1.3092280275e+01 +3.3359666042e+01 +1.1263877540e+02 1.7211038299e+02 1.2510081969e+02 1.7667e+01 0.0000e+00
       11  1    3    3    0    0 -1.6318874333e-02 -1.2821454201e-01 +2.0706623546e-02 1.3089805125e-01 5.1100000000e-04 0.0000e+00 1.0000e+00
      255  1    3    3    0    0 -1.3075961401e+01 -3.3231451500e+01 +4.0115141405e+01 1.3604975085e+02 1.2500000000e+02 0.0000e+00 0.0000e+00
      -11  1    4    4    0    0 -4.2219133871e-02 +6.9837571535e-02 -2.9278753024e-03 8.1661344817e-02 5.1100000000e-04 0.0000e+00 -1.0000e+00
      255  1    4    4    0    0 +1.3134499409e+01 +3.3289828470e+01 +1.1264170328e+02 1.7202872165e+02 1.2500000000e+02 0.0000e+00 0.0000e+00
<mgrwt>
<rscale>  0 0.26777467E+03</rscale>
<asrwt>0</asrwt>
<pdfrwt beam="1">  1        2 0.11962801E-01 0.26777467E+03</pdfrwt>
<pdfrwt beam="2">  1       -2 0.35466588E-01 0.26777467E+03</pdfrwt>
<totfact> 0.38181490E+03</totfact>
</mgrwt>
</event>
<event>
 8      1 +1.6198320e-01 3.18890800e+02 7.81860800e-03 1.07616100e-01
       -2 -1    0    0    0  501 -0.0000000000e+00 +0.0000000000e+00 +1.9974250846e+02 1.9974250847e+02 2.5500000000e-03 0.0000e+00 -1.0000e+00
        2 -1    0    0  501    0 +0.0000000000e+00 -0.0000000000e+00 -1.2727802509e+02 1.2727802511e+02 2.5500000000e-03 0.0000e+00 1.0000e+00
  1000101  2    1    2    0    0 -2.4993226801e+01 +8.2022751144e+00 -6.1490471661e+01 1.4185592435e+02 1.2510030562e+02 8.5590e+00 0.0000e+00
 -1000101  2    1    2    0    0 +2.4993226801e+01 -8.2022751144e+00 +1.3395495503e+02 1.8516460923e+02 1.2510021516e+02 7.7930e+01 0.0000e+00
       11  1    3    3    0    0 +5.4761468470e-02 +3.6126642423e-02 -1.1109231021e-01 1.2901827480e-01 5.1100000000e-04 0.0000e+00 1.0000e+00
      255  1    3    3    0    0 -2.5047988269e+01 +8.1661484719e+00 -6.1379379351e+01 1.4172690608e+02 1.2500000000e+02 0.0000e+00 0.0000e+00
      -11  1    4    4    0    0 +5.0865324703e-02 -1.0264759890e-01 +1.2097738071e-01 1.6661212015e-01 5.1100000000e-04 0.0000e+00 -1.0000e+00
      255  1    4    4    0    0 +2.4942361476e+01 -8.0996275155e+00 +1.3383397765e+02 1.8499799711e+02 1.2500000000e+02 0.0000e+00 0.0000e+00
<mgrwt>
<rscale>  0 0.31889078E+03</rscale>
<asrwt>0</asrwt>
<pdfrwt beam="1">  1        2 0.19581235E-01 0.31889078E+03</pdfrwt>
<pdfrwt beam="2">  1       -2 0.30729616E-01 0.31889078E+03</pdfrwt>
<totfact> 0.27886559E+03</totfact>
</mgrwt>
</event>
<event>
 8      1 +1.6198320e-01 3.22742300e+02 7.81860800e-03 1.07439400e-01
        2 -1    0    0  501    0 +0.0000000000e+00 +0.0000000000e+00 +4.0138957660e+02 4.0138957661e+02 2.5500000000e-03 0.0000e+00 1.0000e+00
       -2 -1    0    0    0  501 -0.0000000000e+00 -0.0000000000e+00 -6.4876233213e+01 6.4876233263e+01 2.5500000000e-03 0.0000e+00 -1.0000e+00
  1000101  2    1    2    0    0 -4.2244284619e+01 -3.4563340518e+01 +4.3882646520e+01 1.4336961918e+02 1.2509978795e+02 2.6458e+01 0.0000e+00
 -1000101  2    1    2    0    0 +4.2244284619e+01 +3.4563340518e+01 +2.9263069687e+02 3.2289619070e+02 1.2510004447e+02 8.4268e+01 0.0000e+00
       11  1    3    3    0    0 +4.7908196534e-02 -8.4079658264e-02 +4.6958416567e-02 1.0756364737e-01 5.1100000000e-04 0.0000e+00 1.0000e+00
      255  1    3    3    0    0 -4.2292192815e+01 -3.4479260860e+01 +4.3835688103e+01 1.4326205553e+02 1.2500000000e+02 0.0000e+00 0.0000e+00
      -11  1    4    4    0    0 +1.2894651090e-01 +5.2229539405e-03 +2.0989791996e-01 2.4639780812e-01 5.1100000000e-04 0.0000e+00 -1.0000e+00
      255  1    4    4    0    0 +4.2115338108e+01 +3.4558117565e+01 +2.9242079895e+02 3.2264979289e+02 1.2500000000e+02 0.0000e+00 0.0000e+00
<mgrwt>
<rscale>  0 0.32274227E+03</rscale>
<asrwt>0</asrwt>
<pdfrwt beam="1">  1        2 0.61752242E-01 0.32274227E+03</pdfrwt>
<pdfrwt beam="2">  1       -2 0.99809590E-02 0.32274227E+03</pdfrwt>
<totfact> 0.52980905E+03</totfact>
</mgrwt>
</event>
<event>
 8      1 +1.6198320e-01 4.17199500e+02 7.81860800e-03 1.03798200e-01
        2 -1    0    0  501    0 +0.0000000000e+00 +0.0000000000e+00 +4.8848927225e+02 4.8848927225e+02 2.5500000000e-03 0.0000e+00 1.0000e+00
       -2 -1    0    0    0  501 -0.0000000000e+00 -0.0000000000e+00 -8.9078445130e+01 8.9078445167e+01 2.5500000000e-03 0.0000e+00 -1.0000e+00
  1000101  2    1    2    0    0 +2.5757313210e+01 -4.6435947521e+01 +4.1879005020e+02 4.4028949964e+02 1.2509996381e+02 3.5231e+01 0.0000e+00
 -1000101  2    1    2    0    0 -2.5757313210e+01 +4.6435947521e+01 -1.9379223082e+01 1.3727821778e+02 1.2510003350e+02 1.4377e+02 0.0000e+00
       11  1    3    3    0    0 +1.1013383001e-03 -1.0556076546e-01 +6.3120680927e-01 6.3997389426e-01 5.1100000000e-04 0.0000e+00 1.0000e+00
      255  1    3    3    0    0 +2.5756211872e+01 -4.6330386756e+01 +4.1815884339e+02 4.3964952575e+02 1.2500000000e+02 0.0000e+00 0.0000e+00
      -11  1    4    4    0    0 -1.2044887952e-01 +4.2114977630e-02 +2.4416016205e-03 1.2762376917e-01 5.1100000000e-04 0.0000e+00 -1.0000e+00
      255  1    4    4    0    0 -2.5636864331e+01 +4.6393832544e+01 -1.9381664684e+01 1.3715059401e+02 1.2500000000e+02 0.0000e+00 0.0000e+00
<mgrwt>
<rscale>  0 0.41719954E+03</rscale>
<asrwt>0</asrwt>
<pdfrwt beam="1">  1        2 0.75152196E-01 0.41719954E+03</pdfrwt>
<pdfrwt beam="2">  1       -2 0.13704376E-01 0.41719954E+03</pdfrwt>
<totfact> 0.25572899E+03</totfact>
</mgrwt>
</event>
<event>
 8      1 +1.6198320e-01 2.60622100e+02 7.81860800e-03 1.10677000e-01
       -2 -1    0    0    0  501 -0.0000000000e+00 +0.0000000000e+00 +6.2372593642e+01 6.2372593694e+01 2.5500000000e-03 0.0000e+00 -1.0000e+00
        2 -1    0    0  501    0 +0.0000000000e+00 -0.0000000000e+00 -2.7225044617e+02 2.7225044619e+02 2.5500000000e-03 0.0000e+00 1.0000e+00
  1000101  2    1    2    0    0 -2.3972630525e+01 -1.7900918293e+01 -1.3174312781e+02 1.8412331471e+02 1.2510001360e+02 3.8748e+00 0.0000e+00
 -1000101  2    1    2    0    0 +2.3972630525e+01 +1.7900918293e+01 -7.8134724718e+01 1.5049972517e+02 1.2509996875e+02 6.7461e+01 0.0000e+00
       11  1    3    3    0    0 +6.8005326670e-02 -2.6830647550e-02 -1.6128936453e-01 1.7708508784e-01 5.1100000000e-04 0.0000e+00 1.0000e+00
      255  1    3    3    0    0 -2.4040635852e+01 -1.7874087646e+01 -1.3158183845e+02 1.8394622962e+02 1.2500000000e+02 0.0000e+00 0.0000e+00
      -11  1    4    4    0    0 -3.4586380507e-02 +3.0243023724e-02 +3.9545195217e-02 6.0621298132e-02 5.1100000000e-04 0.0000e+00 -1.0000e+00
      255  1    4    4    0    0 +2.4007216906e+01 +1.7870675270e+01 -7.8174269913e+01 1.5043910387e+02 1.2500000000e+02 0.0000e+00 0.0000e+00
<mgrwt>
<rscale>  0 0.26062207E+03</rscale>
<asrwt>0</asrwt>
<pdfrwt beam="1">  1        2 0.41884683E-01 0.26062207E+03</pdfrwt>
<pdfrwt beam="2">  1       -2 0.95957838E-02 0.26062207E+03</pdfrwt>
<totfact> 0.85184153E+03</totfact>
</mgrwt>
</event>
<event>
 8      1 +1.6198320e-01 3.71832900e+02 7.81860800e-03 1.05399400e-01
       -2 -1    0    0    0  501 -0.0000000000e+00 +0.0000000000e+00 +4.7087476704e+02 4.7087476705e+02 2.5500000000e-03 0.0000e+00 -1.0000e+00
        2 -1    0    0  501    0 +0.0000000000e+00 -0.0000000000e+00 -7.3405757622e+01 7.3405757666e+01 2.5500000000e-03 0.0000e+00 1.0000e+00
  1000101  2    1    2    0    0 +8.3526358307e+01 +8.4833087514e+01 +2.9952893280e+02 3.4574696484e+02 1.2510026716e+02 1.4864e+02 0.0000e+00
 -1000101  2    1    2    0    0 -8.3526358307e+01 -8.4833087514e+01 +9.7940076621e+01 1.9853355987e+02 1.2510000207e+02 6.1044e+01 0.0000e+00
       11  1    3    3    0    0 +1.1408753360e-01 -2.2806297970e-02 +1.8736591968e-01 2.2055008848e-01 5.1100000000e-04 0.0000e+00 1.0000e+00
      255  1    3    3    0    0 +8.3412270774e+01 +8.4855893812e+01 +2.9934156688e+02 3.4552641475e+02 1.2500000000e+02 0.0000e+00 0.0000e+00
      -11  1    4    4    0    0 -2.4058416399e-02 +2.2087715786e-02 +1.1682119725e-01 1.2130180476e-01 5.1100000000e-04 0.0000e+00 -1.0000e+00
      255  1    4    4    0    0 -8.3502299891e+01 -8.4855175229e+01 +9.7823255424e+01 1.9841225807e+02 1.2500000000e+02 0.0000e+00 0.0000e+00
<mgrwt>
<rscale>  0 0.37183286E+03</rscale>
<asrwt>0</asrwt>
<pdfrwt beam="1">  1        2 0.11293193E-01 0.37183286E+03</pdfrwt>
<pdfrwt beam="2">  1       -2 0.72442275E-01 0.37183286E+03</pdfrwt>
<totfact> 0.98136002E+02</totfact>
</mgrwt>
</event>
<event>
 8      1 +1.6198320e-01 3.07988800e+02 7.81860800e-03 1.08131400e-01
       -1 -1    0    0    0  501 -0.0000000000e+00 +0.0000000000e+00 +1.6297488314e+01 1.6297489093e+01 5.0400000000e-03 0.0000e+00 -1.0000e+00
        1 -1    0    0  501    0 +0.0000000000e+00 -0.0000000000e+00 -1.4550877864e+03 1.4550877864e+03 5.0400000000e-03 0.0000e+00 1.0000e+00
  1000101  2    1    2    0    0 +1.5190291290e+01 -5.9800054742e+00 -1.1412594494e+03 1.1482115292e+03 1.2510027792e+02 1.1862e+02 0.0000e+00
 -1000101  2    1    2    0    0 -1.5190291290e+01 +5.9800054742e+00 -2.9753084875e+02 3.2317374636e+02 1.2510059538e+02 1.5097e+02 0.0000e+00
       11  1    3    3    0    0 -2.7782015556e-02 -3.0036641831e-02 -1.6869261744e+00 1.6874223595e+00 5.1100000000e-04 0.0000e+00 1.0000e+00
      255  1    3    3    0    0 +1.5218073306e+01 -5.9499688324e+00 -1.1395725232e+03 1.1465241068e+03 1.2500000000e+02 0.0000e+00 0.0000e+00
      -11  1    4    4    0    0 -1.9336481260e-02 -6.3041756177e-02 -4.4270122125e-02 7.9424601752e-02 5.1100000000e-04 0.0000e+00 -1.0000e+00
      255  1    4    4    0    0 -1.5170954809e+01 +6.0430472304e+00 -2.9748657863e+02 3.2309432176e+02 1.2500000000e+02 0.0000e+00 0.0000e+00
<mgrwt>
<rscale>  0 0.30798881E+03</rscale>
<asrwt>0</asrwt>
<pdfrwt beam="1">  1        1 0.22385956E+00 0.30798881E+03</pdfrwt>
<pdfrwt beam="2">  1       -1 0.25073071E-02 0.30798881E+03</pdfrwt>
<totfact> 0.37744125E+03</totfact>
</mgrwt>
</event>
<event>
 8      1 +1.6198320e-01 2.77430200e+02 7.81860800e-03 1.09710100e-01
        2 -1    0    0  501    0 +0.0000000000e+00 +0.0000000000e+00 +1.0527411652e+03 1.0527411652e+03 2.5500000000e-03 0.0000e+00 1.0000e+00
       -2 -1    0    0    0  501 -0.0000000000e+00 -0.0000000000e+00 -1.8277876345e+01 1.8277876523e+01 2.5500000000e-03 0.0000e+00 -1.0000e+00
  1000101  2    1    2    0    0 +7.3365100512e+00 -5.5986462598e+01 +4.3968065635e+02 4.6060545634e+02 1.2509995392e+02 8.9789e+01 0.0000e+00
 -1000101  2    1    2    0    0 -7.3365100512e+00 +5.5986462598e+01 +5.9478263254e+02 6.1041358541e+02 1.2510018751e+02 9.2272e+01 0.0000e+00
       11  1    3    3    0    0 +7.1959983412e-02 -1.0779616100e-01 +6.1238196874e-01 6.2594743253e-01 5.1100000000e-04 0.0000e+00 1.0000e+00
      255  1    3    3    0    0 +7.2645500677e+00 -5.5878666437e+01 +4.3906827438e+02 4.5997950891e+02 1.2500000000e+02 0.0000e+00 0.0000e+00
      -11  1    4    4    0    0 -1.0151755729e-01 +6.6897818739e-02 +4.2900406753e-01 4.4589896127e-01 5.1100000000e-04 0.0000e+00 -1.0000e+00
      255  1    4    4    0    0 -7.2349924939e+00 +5.5919564779e+01 +5.9435362847e+02 6.0996768645e+02 1.2500000000e+02 0.0000e+00 0.0000e+00
<mgrwt>
<rscale>  0 0.27743016E+03</rscale>
<asrwt>0</asrwt>
<pdfrwt beam="1">  1        2 0.16196018E+00 0.27743016E+03</pdfrwt>
<pdfrwt beam="2">  1       -2 0.28119810E-02 0.27743016E+03</pdfrwt>
<totfact> 0.11353533E+04</totfact>
</mgrwt>
</event>
<event>
 8      1 +1.6198320e-01 3.93657300e+02 7.81860800e-03 1.04599800e-01
        4 -1    0    0  501    0 +0.0000000000e+00 +0.0000000000e+00 +1.1809706741e+02 1.1810389592e+02 1.2700000000e+00 0.0000e+00 1.0000e+00
       -4 -1    0    0    0  501 -0.0000000000e+00 -0.0000000000e+00 -3.2803053927e+02 3.2803299772e+02 1.2700000000e+00 0.0000e+00 -1.0000e+00
  1000101  2    1    2    0    0 -1.3713332908e+02 -5.4720184842e+01 -6.4235888279e+01 2.0390218332e+02 1.2509996981e+02 7.0469e+01 0.0000e+00
 -1000101  2    1    2    0    0 +1.3713332908e+02 +5.4720184842e+01 -1.4569758358e+02 2.4223471032e+02 1.2510004176e+02 2.6199e+02 0.0000e+00
       11  1    3    3    0    0 -8.2457993153e-02 -1.1218852485e-01 -1.2254199759e-01 1.8547880752e-01 5.1100000000e-04 0.0000e+00 1.0000e+00
      255  1    3    3    0    0 -1.3705087109e+02 -5.4607996318e+01 -6.4113346282e+01 2.0371670452e+02 1.2500000000e+02 0.0000e+00 0.0000e+00
      -11  1    4    4    0    0 +5.0843594584e-02 -6.4636890005e-02 -6.8439312013e-02 1.0699158476e-01 5.1100000000e-04 0.0000e+00 -1.0000e+00
      255  1    4    4    0    0 +1.3708248548e+02 +5.4784821732e+01 -1.4562914427e+02 2.4212771873e+02 1.2500000000e+02 0.0000e+00 0.0000e+00
<mgrwt>
<rscale>  0 0.39365729E+03</rscale>
<asrwt>0</asrwt>
<pdfrwt beam="1">  1        4 0.18169494E-01 0.39365729E+03</pdfrwt>
<pdfrwt beam="2">  1       -4 0.50466951E-01 0.39365729E+03</pdfrwt>
<totfact> 0.19795992E+02</totfact>
</mgrwt>
</event>
<event>
 8      1 +1.6198320e-01 2.99799900e+02 7.81860800e-03 1.08534100e-01
        2 -1    0    0  501    0 +0.0000000000e+00 +0.0000000000e+00 +1.1277062789e+03 1.1277062789e+03 2.5500000000e-03 0.0000e+00 1.0000e+00
       -2 -1    0    0    0  501 -0.0000000000e+00 -0.0000000000e+00 -1.9925391800e+01 1.9925391963e+01 2.5500000000e-03 0.0000e+00 -1.0000e+00
  1000101  2    1    2    0    0 -1.3409395535e+00 -7.3095818827e+01 +7.0091569480e+02 7.1573572323e+02 1.2510002971e+02 2.4062e+02 0.0000e+00
 -1000101  2    1    2    0    0 +1.3409395535e+00 +7.3095818827e+01 +4.0686519234e+02 4.3189594768e+02 1.2510007209e+02 4.9228e+01 0.0000e+00
       11  1    3    3    0    0 -9.8156357427e-02 -3.3139112731e-02 +5.4522902486e-01 5.5498452408e-01 5.1100000000e-04 0.0000e+00 1.0000e+00
      255  1    3    3    0    0 -1.2427831960e+00 -7.3062679714e+01 +7.0037046578e+02 7.1518073870e+02 1.2500000000e+02 0.0000e+00 0.0000e+00
      -11  1    4    4    0    0 +7.7712921898e-02 -1.4612005848e-02 +2.5381382605e-01 2.6584681372e-01 5.1100000000e-04 0.0000e+00 -1.0000e+00
      255  1    4    4    0    0 +1.2632266316e+00 +7.3110430833e+01 +4.0661137852e+02 4.3163010087e+02 1.2500000000e+02 0.0000e+00 0.0000e+00
<mgrwt>
<rscale>  0 0.29979986E+03</rscale>
<asrwt>0</asrwt>
<pdfrwt beam="1">  1        2 0.17349331E+00 0.29979986E+03</pdfrwt>
<pdfrwt beam="2">  1       -2 0.30654443E-02 0.29979986E+03</pdfrwt>
<totfact> 0.90339421E+03</totfact>
</mgrwt>
</event>
<event>
 8      1 +1.6198320e-01 1.23332600e+03 7.81860800e-03 9.08417700e-02
       -2 -1    0    0    0  501 -0.0000000000e+00 +0.0000000000e+00 +7.4540164926e+02 7.4540164927e+02 2.5500000000e-03 0.0000e+00 -1.0000e+00
        2 -1    0    0  501    0 +0.0000000000e+00 -0.0000000000e+00 -5.1015845073e+02 5.1015845074e+02 2.5500000000e-03 0.0000e+00 1.0000e+00
  1000101  2    1    2    0    0 +5.1000558859e+01 +3.3114991968e+02 -3.9379102401e+02 5.3196118786e+02 1.2509999396e+02 1.0755e+01 0.0000e+00
 -1000101  2    1    2    0    0 -5.1000558859e+01 -3.3114991968e+02 +6.2903422255e+02 7.2359891215e+02 1.2509998487e+02 8.8159e+01 0.0000e+00
       11  1    3    3    0    0 +4.3757730222e-02 +2.6632468190e-01 -1.6827083811e-01 3.1805488712e-01 5.1100000000e-04 0.0000e+00 1.0000e+00
      255  1    3    3    0    0 +5.0956801129e+01 +3.3088359500e+02 -3.9362275318e+02 5.3164313297e+02 1.2500000000e+02 0.0000e+00 0.0000e+00
      -11  1    4    4    0    0 -9.1225699190e-02 -2.2646479491e-01 +6.1972754715e-01 6.6608627470e-01 5.1100000000e-04 0.0000e+00 -1.0000e+00
      255  1    4    4    0    0 -5.0909333160e+01 -3.3092345488e+02 +6.2841449500e+02 7.2293282587e+02 1.2500000000e+02 0.0000e+00 0.0000e+00
<mgrwt>
<rscale>  0 0.12333255E+04</rscale>
<asrwt>0</asrwt>
<pdfrwt beam="1">  1        2 0.78485915E-01 0.12333255E+04</pdfrwt>
<pdfrwt beam="2">  1       -2 0.11467718E+00 0.12333255E+04</pdfrwt>
<totfact> 0.35157112E+01</totfact>
</mgrwt>
</event>
<event>
 8      1 +1.6198320e-01 3.09783200e+02 7.81860800e-03 1.08045000e-01
       -2 -1    0    0    0  501 -0.0000000000e+00 +0.0000000000e+00 +8.0315866468e+01 8.0315866509e+01 2.5500000000e-03 0.0000e+00 -1.0000e+00
        2 -1    0    0  501    0 +0.0000000000e+00 -0.0000000000e+00 -2.9871316704e+02 2.9871316705e+02 2.5500000000e-03 0.0000e+00 1.0000e+00
  1000101  2    1    2    0    0 -2.9361216066e+01 +1.3578695070e+01 -4.6961456423e+00 1.2929999912e+02 1.2509985620e+02 1.5481e+02 0.0000e+00
 -1000101  2    1    2    0    0 +2.9361216066e+01 -1.3578695070e+01 -2.1370115493e+02 2.4972903443e+02 1.2509974042e+02 5.3534e+01 0.0000e+00
       11  1    3    3    0    0 -5.6780915671e-02 -8.3216357613e-02 -6.8811952947e-03 1.0097844586e-01 5.1100000000e-04 0.0000e+00 1.0000e+00
      255  1    3    3    0    0 -2.9304435150e+01 +1.3661911428e+01 -4.6892644470e+00 1.2919902068e+02 1.2500000000e+02 0.0000e+00 0.0000e+00
      -11  1    4    4    0    0 -5.5122048449e-02 -6.2925574866e-02 -2.1715446063e-01 2.3271095610e-01 5.1100000000e-04 0.0000e+00 -1.0000e+00
      255  1    4    4    0    0 +2.9416338114e+01 -1.3515769495e+01 -2.1348400047e+02 2.4949632348e+02 1.2500000000e+02 0.0000e+00 0.0000e+00
<mgrwt>
<rscale>  0 0.30978319E+03</rscale>
<asrwt>0</asrwt>
<pdfrwt beam="1">  1        2 0.45955871E-01 0.30978319E+03</pdfrwt>
<pdfrwt beam="2">  1       -2 0.12356287E-01 0.30978319E+03</pdfrwt>
<totfact> 0.51715192E+03</totfact>
</mgrwt>
</event>
<event>
 8      1 +1.6198320e-01 4.40005100e+02 7.81860800e-03 1.03074500e-01
       -2 -1    0    0    0  501 -0.0000000000e+00 +0.0000000000e+00 +1.5939274917e+01 1.5939275121e+01 2.5500000000e-03 0.0000e+00 -1.0000e+00
        2 -1    0    0  501    0 +0.0000000000e+00 -0.0000000000e+00 -3.0365948622e+03 3.0365948622e+03 2.5500000000e-03 0.0000e+00 1.0000e+00
  1000101  2    1    2    0    0 +1.2256341209e+02 -2.4692845981e+01 -6.0261158681e+02 6.2803043430e+02 1.2509986103e+02 3.0320e+02 0.0000e+00
 -1000101  2    1    2    0    0 -1.2256341209e+02 +2.4692845981e+01 -2.4180440005e+03 2.4245037030e+03 1.2509952474e+02 4.5276e+01 0.0000e+00
       11  1    3    3    0    0 +8.8605430095e-02 +8.1340568662e-02 -4.4456841880e-01 4.6055244052e-01 5.1100000000e-04 0.0000e+00 1.0000e+00
      255  1    3    3    0    0 +1.2247480666e+02 -2.4774186550e+01 -6.0216701839e+02 6.2756988186e+02 1.2500000000e+02 0.0000e+00 0.0000e+00
      -11  1    4    4    0    0 -1.5658693666e-01 -6.1123368614e-02 -1.9506242218e+00 1.9578535826e+00 5.1100000000e-04 0.0000e+00 -1.0000e+00
      255  1    4    4    0    0 -1.2240682515e+02 +2.4753969350e+01 -2.4160933763e+03 2.4225458494e+03 1.2500000000e+02 0.0000e+00 0.0000e+00
<mgrwt>
<rscale>  0 0.44000509E+03</rscale>
<asrwt>0</asrwt>
<pdfrwt beam="1">  1        2 0.46716798E+00 0.44000509E+03</pdfrwt>
<pdfrwt beam="2">  1       -2 0.24521986E-02 0.44000509E+03</pdfrwt>
<totfact> 0.11060646E+03</totfact>
</mgrwt>
</event>
<event>
 8      1 +1.6198320e-01 2.66458300e+02 7.81860800e-03 1.10332400e-01
        2 -1    0    0  501    0 +0.0000000000e+00 +0.0000000000e+00 +1.1149960566e+02 1.1149960569e+02 2.5500000000e-03 0.0000e+00 1.0000e+00
       -2 -1    0    0    0  501 -0.0000000000e+00 -0.0000000000e+00 -1.5919346264e+02 1.5919346266e+02 2.5500000000e-03 0.0000e+00 -1.0000e+00
  1000101  2    1    2    0    0 +3.9693629067e+01 -2.1326438204e+01 -3.2321068127e+01 1.3683951970e+02 1.2509996623e+02 4.5351e+02 0.0000e+00
 -1000101  2    1    2    0    0 -3.9693629067e+01 +2.1326438204e+01 -1.5372788852e+01 1.3385354865e+02 1.2510015465e+02 5.6295e+01 0.0000e+00
       11  1    3    3    0    0 +1.8089336265e-02 -7.8477029948e-02 +5.2874924614e-02 9.6342550776e-02 5.1100000000e-04 0.0000e+00 1.0000e+00
      255  1    3    3    0    0 +3.9675539730e+01 -2.1247961174e+01 -3.2373943052e+01 1.3674317714e+02 1.2500000000e+02 0.0000e+00 0.0000e+00
      -11  1    4    4    0    0 -8.2416706510e-02 -4.7139539265e-03 -9.8576461428e-02 1.2857804922e-01 5.1100000000e-04 0.0000e+00 -1.0000e+00
      255  1    4    4    0    0 -3.9611212360e+01 +2.1331152158e+01 -1.5274212391e+01 1.3372497060e+02 1.2500000000e+02 0.0000e+00 0.0000e+00
<mgrwt>
<rscale>  0 0.26645831E+03</rscale>
<asrwt>0</asrwt>
<pdfrwt beam="1">  1        2 0.17153785E-01 0.26645831E+03</pdfrwt>
<pdfrwt beam="2">  1       -2 0.24491302E-01 0.26645831E+03</pdfrwt>
<totfact> 0.48585546E+03</totfact>
</mgrwt>
</event>
<event>
 8      1 +1.6198320e-01 4.04427100e+02 7.81860800e-03 1.04225700e-01
       -3 -1    0    0    0  501 -0.0000000000e+00 +0.0000000000e+00 +5.9106576145e+01 5.9106662439e+01 1.0100000000e-01 0.0000e+00 1.0000e+00
        3 -1    0    0  501    0 +0.0000000000e+00 -0.0000000000e+00 -6.9180605139e+02 6.9180605877e+02 1.0100000000e-01 0.0000e+00 -1.0000e+00
  1000101  2    1    2    0    0 +1.2555726974e+02 -5.8971796335e+01 -4.6015012804e+02 4.9661900648e+02 1.2509994610e+02 6.9169e+02 0.0000e+00
 -1000101  2    1    2    0    0 -1.2555726974e+02 +5.8971796335e+01 -1.7254934720e+02 2.5429371472e+02 1.2509882246e+02 1.8236e+02 0.0000e+00
       11  1    3    3    0    0 +1.2822305254e-01 -1.8576069692e-02 -1.4672876031e-01 1.9574425098e-01 5.1100000000e-04 0.0000e+00 1.0000e+00
      255  1    3    3    0    0 +1.2542904668e+02 -5.8953220266e+01 -4.6000339928e+02 4.9642326223e+02 1.2500000000e+02 0.0000e+00 0.0000e+00
      -11  1    4    4    0    0 +3.2227835632e-02 -1.6916119351e-02 -5.5799887472e-02 6.6623397144e-02 5.1100000000e-04 0.0000e+00 -1.0000e+00
      255  1    4    4    0    0 -1.2558949757e+02 +5.8988712455e+01 -1.7249354732e+02 2.5422709132e+02 1.2500000000e+02 0.0000e+00 0.0000e+00
<mgrwt>
<rscale>  0 0.40442711E+03</rscale>
<asrwt>0</asrwt>
<pdfrwt beam="1">  1        3 0.10643170E+00 0.40442711E+03</pdfrwt>
<pdfrwt beam="2">  1       -3 0.90933271E-02 0.40442711E+03</pdfrwt>
<totfact> 0.17598642E+02</totfact>
</mgrwt>
</event>
<event>
 8      1 +1.6198320e-01 2.81952400e+02 7.81860800e-03 1.09462700e-01
       -2 -1    0    0    0  501 -0.0000000000e+00 +0.0000000000e+00 +3.5907186816e+01 3.5907186907e+01 2.5500000000e-03 0.0000e+00 -1.0000e+00
        2 -1    0    0  501    0 +0.0000000000e+00 -0.0000000000e+00 -5.5349059604e+02 5.5349059605e+02 2.5500000000e-03 0.0000e+00 1.0000e+00
  1000101  2    1    2    0    0 +5.8039442285e+01 -1.6256894697e+01 -3.0962745922e+02 3.3934057751e+02 1.2509996224e+02 8.3427e+01 0.0000e+00
 -1000101  2    1    2    0    0 -5.8039442285e+01 +1.6256894697e+01 -2.0795595000e+02 2.5005720544e+02 1.2510022129e+02 7.8117e+01 0.0000e+00
       11  1    3    3    0    0 -2.7973301376e-02 -8.1547198706e-02 -2.3748827919e-01 2.5265271635e-01 5.1100000000e-04 0.0000e+00 1.0000e+00
      255  1    3    3    0    0 +5.8067415586e+01 -1.6175347498e+01 -3.0938997094e+02 3.3908792479e+02 1.2500000000e+02 0.0000e+00 0.0000e+00
      -11  1    4    4    0    0 -7.7954460113e-02 +9.2912344222e-02 -9.8871668345e-02 1.5647833551e-01 5.1100000000e-04 0.0000e+00 -1.0000e+00
      255  1    4    4    0    0 -5.7961487824e+01 +1.6163982353e+01 -2.0785707833e+02 2.4990072711e+02 1.2500000000e+02 0.0000e+00 0.0000e+00
<mgrwt>
<rscale>  0 0.28195241E+03</rscale>
<asrwt>0</asrwt>
<pdfrwt beam="1">  1        2 0.85152393E-01 0.28195241E+03</pdfrwt>
<pdfrwt beam="2">  1       -2 0.55241830E-02 0.28195241E+03</pdfrwt>
<totfact> 0.92792925E+03</totfact>
</mgrwt>
</event>
<event>
 8      1 +1.6198320e-01 4.21188800e+02 7.81860800e-03 1.03668000e-01
        1 -1    0    0  501    0 +0.0000000000e+00 +0.0000000000e+00 +9.3735394263e+02 9.3735394264e+02 5.0400000000e-03 0.0000e+00 -1.0000e+00
       -1 -1    0    0    0  501 -0.0000000000e+00 -0.0000000000e+00 -4.7314028300e+01 4.7314028568e+01 5.0400000000e-03 0.0000e+00 1.0000e+00
  1000101  2    1    2    0    0 -1.4973624935e+02 +7.1255862734e+01 +5.2605663201e+02 5.6558282165e+02 1.2509998292e+02 1.2874e+02 0.0000e+00
 -1000101  2    1    2    0    0 +1.4973624935e+02 -7.1255862734e+01 +3.6398328232e+02 4.1908514956e+02 1.2510072112e+02 2.0577e+01 0.0000e+00
       11  1    3    3    0    0 +1.8861913936e-02 -2.9210926785e-02 +6.1780839641e-02 7.0895580324e-02 5.1100000000e-04 0.0000e+00 1.0000e+00
      255  1    3    3    0    0 -1.4975511127e+02 +7.1285073661e+01 +5.2599485117e+02 5.6551192607e+02 1.2500000000e+02 0.0000e+00 0.0000e+00
      -11  1    4    4    0    0 -5.5404220770e-03 +3.9774725570e-02 +4.4364219809e-02 5.9842879206e-02 5.1100000000e-04 0.0000e+00 -1.0000e+00
      255  1    4    4    0    0 +1.4974178978e+02 -7.1295637460e+01 +3.6393891810e+02 4.1902530668e+02 1.2500000000e+02 0.0000e+00 0.0000e+00
<mgrwt>
<rscale>  0 0.42118875E+03</rscale>
<asrwt>0</asrwt>
<pdfrwt beam="1">  1        1 0.14420830E+00 0.42118875E+03</pdfrwt>
<pdfrwt beam="2">  1       -1 0.72790812E-02 0.42118875E+03</pdfrwt>
<totfact> 0.17782321E+03</totfact>
</mgrwt>
</event>
<event>
 8      1 +1.6198320e-01 4.59097900e+02 7.81860800e-03 1.02504300e-01
        2 -1    0    0  501    0 +0.0000000000e+00 +0.0000000000e+00 +3.7340226586e+02 3.7340226587e+02 2.5500000000e-03 0.0000e+00 1.0000e+00
       -2 -1    0    0    0  501 -0.0000000000e+00 -0.0000000000e+00 -1.4111516992e+02 1.4111516994e+02 2.5500000000e-03 0.0000e+00 -1.0000e+00
  1000101  2    1    2    0    0 +4.1874322931e+01 +1.5416775195e+01 +3.2596429847e+02 3.5198559969e+02 1.2509997054e+02 3.7561e+00 0.0000e+00
 -1000101  2    1    2    0    0 -4.1874322931e+01 -1.5416775195e+01 -9.3677202527e+01 1.6253183613e+02 1.2510013431e+02 1.8211e+02 0.0000e+00
       11  1    3    3    0    0 -1.8492530801e-02 +3.9129079745e-02 +4.4547530752e-01 4.4757297651e-01 5.1100000000e-04 0.0000e+00 1.0000e+00
      255  1    3    3    0    0 +4.1892815462e+01 +1.5377646115e+01 +3.2551882317e+02 3.5153802671e+02 1.2500000000e+02 0.0000e+00 0.0000e+00
      -11  1    4    4    0    0 -6.4854102732e-03 +7.3863986416e-02 -4.4727916536e-03 7.4284695744e-02 5.1100000000e-04 0.0000e+00 -1.0000e+00
      255  1    4    4    0    0 -4.1867837521e+01 -1.5490639181e+01 -9.3672729736e+01 1.6245755143e+02 1.2500000000e+02 0.0000e+00 0.0000e+00
<mgrwt>
<rscale>  0 0.45909792E+03</rscale>
<asrwt>0</asrwt>
<pdfrwt beam="1">  1        2 0.57446502E-01 0.45909792E+03</pdfrwt>
<pdfrwt beam="2">  1       -2 0.21710026E-01 0.45909792E+03</pdfrwt>
<totfact> 0.15798786E+03</totfact>
</mgrwt>
</event>
<event>
 8      1 +1.6198320e-01 4.22478300e+02 7.81860800e-03 1.03626300e-01
        1 -1    0    0  501    0 +0.0000000000e+00 +0.0000000000e+00 +1.7487126372e+03 1.7487126372e+03 5.0400000000e-03 0.0000e+00 -1.0000e+00
       -1 -1    0    0    0  501 -0.0000000000e+00 -0.0000000000e+00 -2.5517041869e+01 2.5517042367e+01 5.0400000000e-03 0.0000e+00 1.0000e+00
  1000101  2    1    2    0    0 -1.5766113522e+02 +4.2055310868e+01 +6.5817825140e+02 6.8954647358e+02 1.2510014344e+02 5.2012e+02 0.0000e+00
 -1000101  2    1    2    0    0 +1.5766113522e+02 -4.2055310868e+01 +1.0650173439e+03 1.0846832060e+03 1.2510008692e+02 1.1036e+01 0.0000e+00
       11  1    3    3    0    0 +3.2080863084e-02 +2.4867036221e-02 +1.5965766718e-01 1.6473731537e-01 5.1100000000e-04 0.0000e+00 1.0000e+00
      255  1    3    3    0    0 -1.5769321608e+02 +4.2030443832e+01 +6.5801859373e+02 6.8938173627e+02 1.2500000000e+02 0.0000e+00 0.0000e+00
      -11  1    4    4    0    0 +1.9422281320e-01 +4.2021674397e-02 +1.2086205845e+00 1.2248478684e+00 5.1100000000e-04 0.0000e+00 -1.0000e+00
      255  1    4    4    0    0 +1.5746691240e+02 -4.2097332542e+01 +1.0638087233e+03 1.0834583581e+03 1.2500000000e+02 0.0000e+00 0.0000e+00
<mgrwt>
<rscale>  0 0.42247828E+03</rscale>
<asrwt>0</asrwt>
<pdfrwt beam="1">  1        1 0.26903273E+00 0.42247828E+03</pdfrwt>
<pdfrwt beam="2">  1       -1 0.39256985E-02 0.42247828E+03</pdfrwt>
<totfact> 0.12317838E+03</totfact>
</mgrwt>
</event>
<event>
 8      1 +1.6198320e-01 2.83663700e+02 7.81860800e-03 1.09370500e-01
        2 -1    0    0  501    0 +0.0000000000e+00 +0.0000000000e+00 +1.6084993547e+03 1.6084993547e+03 2.5500000000e-03 0.0000e+00 1.0000e+00
       -2 -1    0    0    0  501 -0.0000000000e+00 -0.0000000000e+00 -1.2506235151e+01 1.2506235411e+01 2.5500000000e-03 0.0000e+00 -1.0000e+00
  1000101  2    1    2    0    0 +2.1391679233e+01 -4.5501542971e+00 +4.3712293367e+02 4.5519753407e+02 1.2510007212e+02 3.3849e+01 0.0000e+00
 -1000101  2    1    2    0    0 -2.1391679233e+01 +4.5501542971e+00 +1.1588701859e+03 1.1658080560e+03 1.2509999184e+02 3.4974e+02 0.0000e+00
       11  1    3    3    0    0 +5.9275185313e-02 -9.4824172980e-02 +3.6898087038e-01 3.8555455542e-01 5.1100000000e-04 0.0000e+00 1.0000e+00
      255  1    3    3    0    0 +2.1332404048e+01 -4.4553301241e+00 +4.3675395280e+02 4.5481197952e+02 1.2500000000e+02 0.0000e+00 0.0000e+00
      -11  1    4    4    0    0 +6.7059855022e-02 +2.0538701922e-03 +2.8422077086e-01 2.9203244725e-01 5.1100000000e-04 0.0000e+00 -1.0000e+00
      255  1    4    4    0    0 -2.1458739088e+01 +4.5481004269e+00 +1.1585859651e+03 1.1655160236e+03 1.2500000000e+02 0.0000e+00 0.0000e+00
<mgrwt>
<rscale>  0 0.28366368E+03</rscale>
<asrwt>0</asrwt>
<pdfrwt beam="1">  1        2 0.24746131E+00 0.28366368E+03</pdfrwt>
<pdfrwt beam="2">  1       -2 0.19240372E-02 0.28366368E+03</pdfrwt>
<totfact> 0.97809892E+03</totfact>
</mgrwt>
</event>
<event>
 8      1 +1.6198320e-01 3.72310900e+02 7.81860800e-03 1.05381300e-01
        2 -1    0    0  501    0 +0.0000000000e+00 +0.0000000000e+00 +3.0852458122e+02 3.0852458123e+02 2.5500000000e-03 0.0000e+00 -1.0000e+00
       -2 -1    0    0    0  501 -0.0000000000e+00 -0.0000000000e+00 -1.1232121407e+02 1.1232121410e+02 2.5500000000e-03 0.0000e+00 1.0000e+00
  1000101  2    1    2    0    0 +2.3548991188e+01 +8.3148928082e+01 +2.1950657110e+02 2.6702331639e+02 1.2510003003e+02 1.3783e+02 0.0000e+00
 -1000101  2    1    2    0    0 -2.3548991188e+01 -8.3148928082e+01 -2.3303203951e+01 1.5382247894e+02 1.2510002592e+02 8.4453e+00 0.0000e+00
       11  1    3    3    0    0 +1.1627978271e-01 +4.7894509191e-02 +2.0611359551e-01 2.4144967851e-01 5.1100000000e-04 0.0000e+00 1.0000e+00
      255  1    3    3    0    0 +2.3432711406e+01 +8.3101033573e+01 +2.1930045750e+02 2.6678186671e+02 1.2500000000e+02 0.0000e+00 0.0000e+00
      -11  1    4    4    0    0 -5.7727154975e-02 -1.2133381139e-01 +5.9094948752e-02 1.4678825667e-01 5.1100000000e-04 0.0000e+00 -1.0000e+00
      255  1    4    4    0    0 -2.3491264033e+01 -8.3027594271e+01 -2.3362298900e+01 1.5367569068e+02 1.2500000000e+02 0.0000e+00 0.0000e+00
<mgrwt>
<rscale>  0 0.37231092E+03</rscale>
<asrwt>0</asrwt>
<pdfrwt beam="1">  1        2 0.47465319E-01 0.37231092E+03</pdfrwt>
<pdfrwt beam="2">  1       -2 0.17280187E-01 0.37231092E+03</pdfrwt>
<totfact> 0.28766816E+03</totfact>
</mgrwt>
</event>
<event>
 8      1 +1.6198320e-01 3.37061200e+02 7.81860800e-03 1.06805500e-01
       -1 -1    0    0    0  501 -0.0000000000e+00 +0.0000000000e+00 +2.8313813773e+01 2.8313814222e+01 5.0400000000e-03 0.0000e+00 -1.0000e+00
        1 -1    0    0  501    0 +0.0000000000e+00 -0.0000000000e+00 -1.0031344726e+03 1.0031344726e+03 5.0400000000e-03 0.0000e+00 1.0000e+00
  1000101  2    1    2    0    0 +4.0355422212e+00 +8.2434893177e+01 -2.5154690462e+02 2.9280982093e+02 1.2509975538e+02 4.9993e+02 0.0000e+00
 -1000101  2    1    2    0    0 -4.0355422212e+00 -8.2434893177e+01 -7.2327375419e+02 7.3863846588e+02 1.2510021012e+02 1.1524e+02 0.0000e+00
       11  1    3    3    0    0 +7.6807175757e-02 +1.1589810949e-01 -3.5508213983e-01 3.8133358254e-01 5.1100000000e-04 0.0000e+00 1.0000e+00
      255  1    3    3    0    0 +3.9587350455e+00 +8.2318995067e+01 -2.5119182248e+02 2.9242848734e+02 1.2500000000e+02 0.0000e+00 0.0000e+00
      -11  1    4    4    0    0 -3.6893646742e-02 -3.8543969945e-02 -6.0315641448e-02 8.0529600232e-02 5.1100000000e-04 0.0000e+00 -1.0000e+00
      255  1    4    4    0    0 -3.9986485745e+00 -8.2396349207e+01 -7.2321343854e+02 7.3855793628e+02 1.2500000000e+02 0.0000e+00 0.0000e+00
<mgrwt>
<rscale>  0 0.33706120E+03</rscale>
<asrwt>0</asrwt>
<pdfrwt beam="1">  1        1 0.15432835E+00 0.33706120E+03</pdfrwt>
<pdfrwt beam="2">  1       -1 0.43559722E-02 0.33706120E+03</pdfrwt>
<totfact> 0.34521937E+03</totfact>
</mgrwt>
</event>
<event>
 8      1 +1.6198320e-01 2.89679800e+02 7.81860800e-03 1.09051600e-01
        2 -1    0    0  501    0 +0.0000000000e+00 +0.0000000000e+00 +5.0869302613e+02 5.0869302614e+02 2.5500000000e-03 0.0000e+00 1.0000e+00
       -2 -1    0    0    0  501 -0.0000000000e+00 -0.0000000000e+00 -4.1240183750e+01 4.1240183829e+01 2.5500000000e-03 0.0000e+00 -1.0000e+00
  1000101  2    1    2    0    0 +6.3432077815e+01 +2.7335683851e+01 +2.7856158001e+02 3.1307736202e+02 1.2510001058e+02 1.0615e+01 0.0000e+00
 -1000101  2    1    2    0    0 -6.3432077815e+01 -2.7335683851e+01 +1.8889126237e+02 2.3685584794e+02 1.2509962269e+02 1.1715e+02 0.0000e+00
       11  1    3    3    0    0 -1.1472977042e-02 +6.3989876684e-02 +3.3778974937e-02 7.3264000637e-02 5.1100000000e-04 0.0000e+00 1.0000e+00
      255  1    3    3    0    0 +6.3443550792e+01 +2.7271693975e+01 +2.7852780104e+02 3.1300409802e+02 1.2500000000e+02 0.0000e+00 0.0000e+00
      -11  1    4    4    0    0 -5.5161193772e-02 -4.8428968240e-02 +5.6346092201e-04 7.3407771201e-02 5.1100000000e-04 0.0000e+00 -1.0000e+00
      255  1    4    4    0    0 -6.3376916621e+01 -2.7287254883e+01 +1.8889069891e+02 2.3678244017e+02 1.2500000000e+02 0.0000e+00 0.0000e+00
<mgrwt>
<rscale>  0 0.28967978E+03</rscale>
<asrwt>0</asrwt>
<pdfrwt beam="1">  1        2 0.78260468E-01 0.28967978E+03</pdfrwt>
<pdfrwt beam="2">  1       -2 0.63446435E-02 0.28967978E+03</pdfrwt>
<totfact> 0.82628094E+03</totfact>
</mgrwt>
</event>
<event>
 8      1 +1.6198320e-01 3.82701700e+02 7.81860800e-03 1.04994000e-01
        2 -1    0    0  501    0 +0.0000000000e+00 +0.0000000000e+00 +5.5780224485e+02 5.5780224486e+02 2.5500000000e-03 0.0000e+00 1.0000e+00
       -2 -1    0    0    0  501 -0.0000000000e+00 -0.0000000000e+00 -6.5641799827e+01 6.5641799876e+01 2.5500000000e-03 0.0000e+00 -1.0000e+00
  1000101  2    1    2    0    0 +9.5977169989e+01 +2.1305309146e+00 +4.2265837077e+02 4.5111670276e+02 1.2510005917e+02 3.5770e+01 0.0000e+00
 -1000101  2    1    2    0    0 -9.5977169989e+01 -2.1305309146e+00 +6.9502074252e+01 1.7232734197e+02 1.2510003256e+02 1.0692e+02 0.0000e+00
       11  1    3    3    0    0 +1.5770520912e-01 +3.2005449337e-03 +6.8935704117e-01 7.0717364756e-01 5.1100000000e-04 0.0000e+00 1.0000e+00
      255  1    3    3    0    0 +9.5819464780e+01 +2.1273303697e+00 +4.2196901373e+02 4.5040952911e+02 1.2500000000e+02 0.0000e+00 0.0000e+00
      -11  1    4    4    0    0 -1.4640148183e-01 -6.6517075589e-02 +1.3261635680e-01 2.0843530037e-01 5.1100000000e-04 0.0000e+00 -1.0000e+00
      255  1    4    4    0    0 -9.5830768507e+01 -2.0640138390e+00 +6.9369457895e+01 1.7211890667e+02 1.2500000000e+02 0.0000e+00 0.0000e+00
<mgrwt>
<rscale>  0 0.38270168E+03</rscale>
<asrwt>0</asrwt>
<pdfrwt beam="1">  1        2 0.85815730E-01 0.38270168E+03</pdfrwt>
<pdfrwt beam="2">  1       -2 0.10098738E-01 0.38270168E+03</pdfrwt>
<totfact> 0.36075174E+03</totfact>
</mgrwt>
</event>
<event>
 8      1 +1.6198320e-01 2.93393300e+02 7.81860800e-03 1.08859100e-01
        2 -1    0    0  501    0 +0.0000000000e+00 +0.0000000000e+00 +9.6899230557e+01 9.6899230591e+01 2.5500000000e-03 0.0000e+00 -1.0000e+00
       -2 -1    0    0    0  501 -0.0000000000e+00 -0.0000000000e+00 -2.2208544284e+02 2.2208544285e+02 2.5500000000e-03 0.0000e+00 1.0000e+00
  1000101  2    1    2    0    0 -3.8925342764e+01 -6.3441824540e+01 -4.2847249934e+01 1.5174306329e+02 1.2510005204e+02 4.2115e+01 0.0000e+00
 -1000101  2    1    2    0    0 +3.8925342764e+01 +6.3441824540e+01 -8.2338962346e+01 1.6724161015e+02 1.2509997616e+02 6.4876e+01 0.0000e+00
       11  1    3    3    0    0 -6.3809543443e-03 +5.7873088298e-02 -4.1864102303e-02 7.1713841833e-02 5.1100000000e-04 0.0000e+00 1.0000e+00
      255  1    3    3    0    0 -3.8918961809e+01 -6.3499697628e+01 -4.2805385832e+01 1.5167134945e+02 1.2500000000e+02 0.0000e+00 0.0000e+00
      -11  1    4    4    0    0 -7.2825702902e-02 +2.8707481275e-02 -5.6170642242e-02 9.6348869507e-02 5.1100000000e-04 0.0000e+00 -1.0000e+00
      255  1    4    4    0    0 +3.8998168466e+01 +6.3413117059e+01 -8.2282791703e+01 1.6714526128e+02 1.2500000000e+02 0.0000e+00 0.0000e+00
<mgrwt>
<rscale>  0 0.29339331E+03</rscale>
<asrwt>0</asrwt>
<pdfrwt beam="1">  1        2 0.14907574E-01 0.29339331E+03</pdfrwt>
<pdfrwt beam="2">  1       -2 0.34166991E-01 0.29339331E+03</pdfrwt>
<totfact> 0.31497433E+03</totfact>
</mgrwt>
</event>
<event>
 8      1 +1.6198320e-01 2.78455000e+02 7.81860800e-03 1.09653600e-01
       -2 -1    0    0    0  501 -0.0000000000e+00 +0.0000000000e+00 +1.3206308044e+01 1.3206308290e+01 2.5500000000e-03 0.0000e+00 -1.0000e+00
        2 -1    0    0  501    0 +0.0000000000e+00 -0.0000000000e+00 -1.4678056214e+03 1.4678056214e+03 2.5500000000e-03 0.0000e+00 1.0000e+00
  1000101  2    1    2    0    0 +1.6893311307e+01 +1.8417640256e+00 -4.1510507048e+02 4.3387902217e+02 1.2510000112e+02 4.2187e+01 0.0000e+00
 -1000101  2    1    2    0    0 -1.6893311307e+01 -1.8417640256e+00 -1.0394942429e+03 1.0471329076e+03 1.2510103509e+02 4.4186e+02 0.0000e+00
       11  1    3    3    0    0 -7.4752376521e-02 +1.8654447318e-02 -4.4898869935e-01 4.5555133570e-01 5.1100000000e-04 0.0000e+00 1.0000e+00
      255  1    3    3    0    0 +1.6968063684e+01 +1.8231095783e+00 -4.1465608178e+02 4.3342347084e+02 1.2500000000e+02 0.0000e+00 0.0000e+00
      -11  1    4    4    0    0 -4.6735762278e-02 -8.2689470097e-02 -4.6724746197e-01 4.7680418599e-01 5.1100000000e-04 0.0000e+00 -1.0000e+00
      255  1    4    4    0    0 -1.6846575545e+01 -1.7590745555e+00 -1.0390269955e+03 1.0466561034e+03 1.2500000000e+02 0.0000e+00 0.0000e+00
<mgrwt>
<rscale>  0 0.27845498E+03</rscale>
<asrwt>0</asrwt>
<pdfrwt beam="1">  1        2 0.22581612E+00 0.27845498E+03</pdfrwt>
<pdfrwt beam="2">  1       -2 0.20317409E-02 0.27845498E+03</pdfrwt>
<totfact> 0.10727608E+04</totfact>
</mgrwt>
</event>
<event>
 8      1 +1.6198320e-01 2.64439900e+02 7.81860800e-03 1.10450500e-01
        2 -1    0    0  501    0 +0.0000000000e+00 +0.0000000000e+00 +1.2371717773e+03 1.2371717773e+03 2.5500000000e-03 0.0000e+00 1.0000e+00
       -2 -1    0    0    0  501 -0.0000000000e+00 -0.0000000000e+00 -1.4130708327e+01 1.4130708557e+01 2.5500000000e-03 0.0000e+00 -1.0000e+00
  1000101  2    1    2    0    0 -2.4451994032e+01 -2.7304068890e+01 +5.0691275059e+02 5.2340608249e+02 1.2509987325e+02 3.5104e+01 0.0000e+00
 -1000101  2    1    2    0    0 +2.4451994032e+01 +2.7304068890e+01 +7.1612831834e+02 7.2789640333e+02 1.2509993388e+02 7.2686e+00 0.0000e+00
       11  1    3    3    0    0 +7.4918273610e-02 -4.8119917589e-02 +4.4729093214e-01 4.5606766305e-01 5.1100000000e-04 0.0000e+00 1.0000e+00
      255  1    3    3    0    0 -2.4526912305e+01 -2.7255948972e+01 +5.0646545965e+02 5.2295001482e+02 1.2500000000e+02 0.0000e+00 0.0000e+00
      -11  1    4    4    0    0 -7.6515366254e-02 +4.2035558408e-02 +6.2532914258e-01 6.3139400308e-01 5.1100000000e-04 0.0000e+00 -1.0000e+00
      255  1    4    4    0    0 +2.4528509398e+01 +2.7262033332e+01 +7.1550298920e+02 7.2726500933e+02 1.2500000000e+02 0.0000e+00 0.0000e+00
<mgrwt>
<rscale>  0 0.26443989E+03</rscale>
<asrwt>0</asrwt>
<pdfrwt beam="1">  1        2 0.19033422E+00 0.26443989E+03</pdfrwt>
<pdfrwt beam="2">  1       -2 0.21739540E-02 0.26443989E+03</pdfrwt>
<totfact> 0.12974740E+04</totfact>
</mgrwt>
</event>
<event>
 8      1 +1.6198320e-01 2.89220900e+02 7.81860800e-03 1.09075700e-01
        2 -1    0    0  501    0 +0.0000000000e+00 +0.0000000000e+00 +5.2069468857e+02 5.2069468858e+02 2.5500000000e-03 0.0000e+00 1.0000e+00
       -2 -1    0    0    0  501 -0.0000000000e+00 -0.0000000000e+00 -4.0162086049e+01 4.0162086130e+01 2.5500000000e-03 0.0000e+00 -1.0000e+00
  1000101  2    1    2    0    0 -5.0170215957e+01 +8.6389394098e+00 +3.4047840854e+02 3.6628841468e+02 1.2509985692e+02 4.5532e+01 0.0000e+00
 -1000101  2    1    2    0    0 +5.0170215957e+01 -8.6389394098e+00 +1.4005419398e+02 1.9456836003e+02 1.2509991059e+02 8.4722e+01 0.0000e+00
       11  1    3    3    0    0 -6.3532971925e-02 +2.3586755481e-03 +5.5674210109e-01 5.6036062507e-01 5.1100000000e-04 0.0000e+00 1.0000e+00
      255  1    3    3    0    0 -5.0106682985e+01 +8.6365807343e+00 +3.3992166644e+02 3.6572805405e+02 1.2500000000e+02 0.0000e+00 0.0000e+00
      -11  1    4    4    0    0 -2.2278749343e-02 +4.9539666185e-03 -2.9309404598e-02 3.7150865084e-02 5.1100000000e-04 0.0000e+00 -1.0000e+00
      255  1    4    4    0    0 +5.0192494706e+01 -8.6438933764e+00 +1.4008350338e+02 1.9453120916e+02 1.2500000000e+02 0.0000e+00 0.0000e+00
<mgrwt>
<rscale>  0 0.28922092E+03</rscale>
<asrwt>0</asrwt>
<pdfrwt beam="1">  1        2 0.80106872E-01 0.28922092E+03</pdfrwt>
<pdfrwt beam="2">  1       -2 0.61787827E-02 0.28922092E+03</pdfrwt>
<totfact> 0.83832967E+03</totfact>
</mgrwt>
</event>
<event>
 8      1 +1.6198320e-01 2.96995900e+02 7.81860800e-03 1.08675200e-01
        2 -1    0    0  501    0 +0.0000000000e+00 +0.0000000000e+00 +4.0502132742e+02 4.0502132743e+02 2.5500000000e-03 0.0000e+00 1.0000e+00
       -2 -1    0    0    0  501 -0.0000000000e+00 -0.0000000000e+00 -5.4445633710e+01 5.4445633770e+01 2.5500000000e-03 0.0000e+00 -1.0000e+00
  1000101  2    1    2    0    0 +5.3235820759e+01 +5.6763400133e+01 +1.4653159984e+02 2.0779232198e+02 1.2509997248e+02 1.4770e+01 0.0000e+00
 -1000101  2    1    2    0    0 -5.3235820759e+01 -5.6763400133e+01 +2.0404409386e+02 2.5167463922e+02 1.2509994236e+02 7.8320e+00 0.0000e+00
       11  1    3    3    0    0 +1.9845464847e-02 +4.2268865687e-02 +2.4555489218e-01 2.4995592747e-01 5.1100000000e-04 0.0000e+00 1.0000e+00
      255  1    3    3    0    0 +5.3215975294e+01 +5.6721131267e+01 +1.4628604495e+02 2.0754236605e+02 1.2500000000e+02 0.0000e+00 0.0000e+00
      -11  1    4    4    0    0 +4.8997950515e-02 -1.2133716815e-02 +1.8665369219e-01 1.9335947912e-01 5.1100000000e-04 0.0000e+00 -1.0000e+00
      255  1    4    4    0    0 -5.3284818709e+01 -5.6751266416e+01 +2.0385744017e+02 2.5148127974e+02 1.2500000000e+02 0.0000e+00 0.0000e+00
<mgrwt>
<rscale>  0 0.29699591E+03</rscale>
<asrwt>0</asrwt>
<pdfrwt beam="1">  1        2 0.62310976E-01 0.29699591E+03</pdfrwt>
<pdfrwt beam="2">  1       -2 0.83762510E-02 0.29699591E+03</pdfrwt>
<totfact> 0.69069743E+03</totfact>
</mgrwt>
</event>
<event>
 8      1 +1.6198320e-01 3.45929700e+02 7.81860800e-03 1.06429800e-01
        2 -1    0    0  501    0 +0.0000000000e+00 +0.0000000000e+00 +1.5136853541e+03 1.5136853541e+03 2.5500000000e-03 0.0000e+00 1.0000e+00
       -2 -1    0    0    0  501 -0.0000000000e+00 -0.0000000000e+00 -1.9764237356e+01 1.9764237520e+01 2.5500000000e-03 0.0000e+00 -1.0000e+00
  1000101  2    1    2    0    0 -1.1908426362e+02 -8.9677150869e+00 +7.5721145106e+02 7.7671144967e+02 1.2510001073e+02 1.0571e+01 0.0000e+00
 -1000101  2    1    2    0    0 +1.1908426362e+02 +8.9677150869e+00 +7.3670966569e+02 7.5673814195e+02 1.2509996885e+02 5.0639e+01 0.0000e+00
       11  1    3    3    0    0 -2.2455720979e-01 +2.1016563773e-02 +1.0412258057e+00 1.0653727404e+00 5.1100000000e-04 0.0000e+00 1.0000e+00
      255  1    3    3    0    0 -1.1885970641e+02 -8.9887316507e+00 +7.5617022525e+02 7.7564607693e+02 1.2500000000e+02 0.0000e+00 0.0000e+00
      -11  1    4    4    0    0 +8.7374865916e-02 +9.5701852849e-02 +7.8519368038e-01 7.9581567505e-01 5.1100000000e-04 0.0000e+00 -1.0000e+00
      255  1    4    4    0    0 +1.1899688876e+02 +8.8720132340e+00 +7.3592447201e+02 7.5594232628e+02 1.2500000000e+02 0.0000e+00 0.0000e+00
<mgrwt>
<rscale>  0 0.34592969E+03</rscale>
<asrwt>0</asrwt>
<pdfrwt beam="1">  1        2 0.23287472E+00 0.34592969E+03</pdfrwt>
<pdfrwt beam="2">  1       -2 0.30406513E-02 0.34592969E+03</pdfrwt>
<totfact> 0.55833619E+03</totfact>
</mgrwt>
</event>
<event>
 8      1 +1.6198320e-01 2.81549200e+02 7.81860800e-03 1.09484600e-01
        2 -1    0    0  501    0 +0.0000000000e+00 +0.0000000000e+00 +3.5868397069e+02 3.5868397070e+02 2.5500000000e-03 0.0000e+00 1.0000e+00
       -2 -1    0    0    0  501 -0.0000000000e+00 -0.0000000000e+00 -5.5250542208e+01 5.5250542267e+01 2.5500000000e-03 0.0000e+00 -1.0000e+00
  1000101  2    1    2    0    0 -2.5790327094e+01 +4.3528471047e+01 +2.1066431947e+02 2.5017865779e+02 1.2510010612e+02 1.8189e+02 0.0000e+00
 -1000101  2    1    2    0    0 +2.5790327094e+01 -4.3528471047e+01 +9.2769109014e+01 1.6375585518e+02 1.2509997504e+02 1.8335e+02 0.0000e+00
       11  1    3    3    0    0 -4.5814007555e-02 -6.3952866591e-02 +9.1374867835e-02 1.2057578541e-01 5.1100000000e-04 0.0000e+00 1.0000e+00
      255  1    3    3    0    0 -2.5744513087e+01 +4.3592423914e+01 +2.1057294460e+02 2.5005808200e+02 1.2500000000e+02 0.0000e+00 0.0000e+00
      -11  1    4    4    0    0 -7.5438633884e-02 -2.7337326884e-02 +1.0078301495e-01 1.2882466436e-01 5.1100000000e-04 0.0000e+00 -1.0000e+00
      255  1    4    4    0    0 +2.5865765728e+01 -4.3501133720e+01 +9.2668325999e+01 1.6362703051e+02 1.2500000000e+02 0.0000e+00 0.0000e+00
<mgrwt>
<rscale>  0 0.28154917E+03</rscale>
<asrwt>0</asrwt>
<pdfrwt beam="1">  1        2 0.55182149E-01 0.28154917E+03</pdfrwt>
<pdfrwt beam="2">  1       -2 0.85000835E-02 0.28154917E+03</pdfrwt>
<totfact> 0.76877581E+03</totfact>
</mgrwt>
</event>
<event>
 8      1 +1.6198320e-01 4.55457900e+02 7.81860800e-03 1.02610700e-01
       -2 -1    0    0    0  501 -0.0000000000e+00 +0.0000000000e+00 +1.2255824723e+03 1.2255824723e+03 2.5500000000e-03 0.0000e+00 1.0000e+00
        2 -1    0    0  501    0 +0.0000000000e+00 -0.0000000000e+00 -4.2314958755e+01 4.2314958832e+01 2.5500000000e-03 0.0000e+00 -1.0000e+00
  1000101  2    1    2    0    0 -4.5554844719e+01 +1.8333658120e+02 +6.5529031298e+02 6.9335629877e+02 1.2510002746e+02 1.4987e+02 0.0000e+00
 -1000101  2    1    2    0    0 +4.5554844719e+01 -1.8333658120e+02 +5.2797720051e+02 5.7454113232e+02 1.2510013021e+02 2.8820e+02 0.0000e+00
       11  1    3    3    0    0 +8.6882476486e-03 +2.5030463043e-01 +5.7829823923e-01 6.3020394181e-01 5.1100000000e-04 0.0000e+00 1.0000e+00
      255  1    3    3    0    0 -4.5563532967e+01 +1.8308627657e+02 +6.5471201475e+02 6.9272609483e+02 1.2500000000e+02 0.0000e+00 0.0000e+00
      -11  1    4    4    0    0 +1.3411587103e-01 -2.5484396972e-01 +7.1318413928e-01 7.6913223402e-01 5.1100000000e-04 0.0000e+00 -1.0000e+00
      255  1    4    4    0    0 +4.5420728848e+01 -1.8308173723e+02 +5.2726401637e+02 5.7377200008e+02 1.2500000000e+02 0.0000e+00 0.0000e+00
<mgrwt>
<rscale>  0 0.45545789E+03</rscale>
<asrwt>0</asrwt>
<pdfrwt beam="1">  1        2 0.65099937E-02 0.45545789E+03</pdfrwt>
<pdfrwt beam="2">  1       -2 0.18855115E+00 0.45545789E+03</pdfrwt>
<totfact> 0.18892840E+02</totfact>
</mgrwt>
</event>
<event>
 8      1 +1.6198320e-01 2.93018400e+02 7.81860800e-03 1.08878400e-01
        2 -1    0    0  501    0 +0.0000000000e+00 +0.0000000000e+00 +3.6788725433e+02 3.6788725434e+02 2.5500000000e-03 0.0000e+00 1.0000e+00
       -2 -1    0    0    0  501 -0.0000000000e+00 -0.0000000000e+00 -5.8346540560e+01 5.8346540615e+01 2.5500000000e-03 0.0000e+00 -1.0000e+00
  1000101  2    1    2    0    0 +5.4927101835e+01 -4.2213811883e+01 +2.0113447584e+02 2.4678765965e+02 1.2510027641e+02 1.9095e+01 0.0000e+00
 -1000101  2    1    2    0    0 -5.4927101835e+01 +4.2213811883e+01 +1.0840623794e+02 1.7944613530e+02 1.2510000249e+02 1.8806e+01 0.0000e+00
       11  1    3    3    0    0 -9.4161028012e-03 +4.5483879603e-02 +1.9122316700e-01 1.9678416353e-01 5.1100000000e-04 0.0000e+00 1.0000e+00
      255  1    3    3    0    0 +5.4936517938e+01 -4.2259295763e+01 +2.0094325267e+02 2.4659087549e+02 1.2500000000e+02 0.0000e+00 0.0000e+00
      -11  1    4    4    0    0 -1.3807789017e-02 +7.3339045767e-02 -2.2081700331e-02 7.7827586899e-02 5.1100000000e-04 0.0000e+00 -1.0000e+00
      255  1    4    4    0    0 -5.4913294046e+01 +4.2140472837e+01 +1.0842831964e+02 1.7936830772e+02 1.2500000000e+02 0.0000e+00 0.0000e+00
<mgrwt>
<rscale>  0 0.29301842E+03</rscale>
<asrwt>0</asrwt>
<pdfrwt beam="1">  1        2 0.56598039E-01 0.29301842E+03</pdfrwt>
<pdfrwt beam="2">  1       -2 0.89763909E-02 0.29301842E+03</pdfrwt>
<totfact> 0.68736731E+03</totfact>
</mgrwt>
</event>
<event>
 8      1 +1.6198320e-01 2.87360400e+02 7.81860800e-03 1.09173500e-01
        1 -1    0    0  501    0 +0.0000000000e+00 +0.0000000000e+00 +2.3481918403e+02 2.3481918408e+02 5.0400000000e-03 0.0000e+00 1.0000e+00
       -1 -1    0    0    0  501 -0.0000000000e+00 -0.0000000000e+00 -8.7914473294e+01 8.7914473438e+01 5.0400000000e-03 0.0000e+00 -1.0000e+00
  1000101  2    1    2    0    0 -3.3539143280e+01 -3.7264422637e+01 +1.2938762015e+02 1.8682794767e+02 1.2510001780e+02 5.6574e+01 0.0000e+00
 -1000101  2    1    2    0    0 +3.3539143280e+01 +3.7264422637e+01 +1.7517090587e+01 1.3590570986e+02 1.2509996876e+02 3.8246e+01 0.0000e+00
       11  1    3    3    0    0 -1.0508172678e-01 -9.0099721281e-02 +8.3771188199e-02 1.6179617477e-01 5.1100000000e-04 0.0000e+00 1.0000e+00
      255  1    3    3    0    0 -3.3434061553e+01 -3.7174322915e+01 +1.2930384896e+02 1.8666615149e+02 1.2500000000e+02 0.0000e+00 0.0000e+00
      -11  1    4    4    0    0 +1.2141980189e-02 -3.6414296977e-04 -8.3265018356e-02 8.4147992763e-02 5.1100000000e-04 0.0000e+00 -1.0000e+00
      255  1    4    4    0    0 +3.3527001299e+01 +3.7264786780e+01 +1.7600355605e+01 1.3582156186e+02 1.2500000000e+02 0.0000e+00 0.0000e+00
<mgrwt>
<rscale>  0 0.28736044E+03</rscale>
<asrwt>0</asrwt>
<pdfrwt beam="1">  1        1 0.36126028E-01 0.28736044E+03</pdfrwt>
<pdfrwt beam="2">  1       -1 0.13525304E-01 0.28736044E+03</pdfrwt>
<totfact> 0.45130462E+03</totfact>
</mgrwt>
</event>
<event>
 8      1 +1.6198320e-01 3.04980500e+02 7.81860800e-03 1.08277700e-01
        1 -1    0    0  501    0 +0.0000000000e+00 +0.0000000000e+00 +2.6122593408e+02 2.6122593413e+02 5.0400000000e-03 0.0000e+00 1.0000e+00
       -1 -1    0    0    0  501 -0.0000000000e+00 -0.0000000000e+00 -8.9015941100e+01 8.9015941243e+01 5.0400000000e-03 0.0000e+00 -1.0000e+00
  1000101  2    1    2    0    0 +1.8786069018e+01 -7.4616588647e+01 +1.3321364619e+02 1.9828371951e+02 1.2509998482e+02 5.1822e+01 0.0000e+00
 -1000101  2    1    2    0    0 -1.8786069018e+01 +7.4616588647e+01 +3.8996346789e+01 1.5195815586e+02 1.2510001750e+02 6.9633e+01 0.0000e+00
       11  1    3    3    0    0 +3.2602882637e-02 -1.6909115350e-01 +2.0251101052e-01 2.6583027790e-01 5.1100000000e-04 0.0000e+00 1.0000e+00
      255  1    3    3    0    0 +1.8753466135e+01 -7.4447497493e+01 +1.3301113518e+02 1.9801788923e+02 1.2500000000e+02 0.0000e+00 0.0000e+00
      -11  1    4    4    0    0 -5.5310520058e-02 +1.5279798008e-01 +9.6276405183e-02 1.8888060690e-01 5.1100000000e-04 0.0000e+00 -1.0000e+00
      255  1    4    4    0    0 -1.8730758498e+01 +7.4463790667e+01 +3.8900070384e+01 1.5176927525e+02 1.2500000000e+02 0.0000e+00 0.0000e+00
<mgrwt>
<rscale>  0 0.30498047E+03</rscale>
<asrwt>0</asrwt>
<pdfrwt beam="1">  1        1 0.40188605E-01 0.30498047E+03</pdfrwt>
<pdfrwt beam="2">  1       -1 0.13694760E-01 0.30498047E+03</pdfrwt>
<totfact> 0.38756327E+03</totfact>
</mgrwt>
</event>
<event>
 8      1 +1.6198320e-01 3.52730100e+02 7.81860800e-03 1.06150000e-01
        2 -1    0    0  501    0 +0.0000000000e+00 +0.0000000000e+00 +3.2082082025e+02 3.2082082026e+02 2.5500000000e-03 0.0000e+00 1.0000e+00
       -2 -1    0    0    0  501 -0.0000000000e+00 -0.0000000000e+00 -9.6953287193e+01 9.6953287227e+01 2.5500000000e-03 0.0000e+00 -1.0000e+00
  1000101  2    1    2    0    0 +3.9923964591e+01 -1.1485817674e+02 +1.4255238984e+02 2.2529428038e+02 1.2509998086e+02 4.2889e+01 0.0000e+00
 -1000101  2    1    2    0    0 -3.9923964591e+01 +1.1485817674e+02 +8.1315143218e+01 1.9247982710e+02 1.2509999045e+02 4.4111e+02 0.0000e+00
       11  1    3    3    0    0 -5.0115965128e-02 +1.0706883906e-02 +6.1601561003e-02 8.0132769594e-02 5.1100000000e-04 0.0000e+00 1.0000e+00
      255  1    3    3    0    0 +3.9974080556e+01 -1.1486888363e+02 +1.4249078828e+02 2.2521414761e+02 1.2500000000e+02 0.0000e+00 0.0000e+00
      -11  1    4    4    0    0 +3.0517471684e-02 +1.8130800254e-01 +7.6437252214e-02 1.9911509865e-01 5.1100000000e-04 0.0000e+00 -1.0000e+00
      255  1    4    4    0    0 -3.9954482063e+01 +1.1467686874e+02 +8.1238705966e+01 1.9228071200e+02 1.2500000000e+02 0.0000e+00 0.0000e+00
<mgrwt>
<rscale>  0 0.35273011E+03</rscale>
<asrwt>0</asrwt>
<pdfrwt beam="1">  1        2 0.49357049E-01 0.35273011E+03</pdfrwt>
<pdfrwt beam="2">  1       -2 0.14915890E-01 0.35273011E+03</pdfrwt>
<totfact> 0.35247543E+03</totfact>
</mgrwt>
</event>
<event>
 8      1 +1.6198320e-01 4.34964700e+02 7.81860800e-03 1.03230300e-01
       -2 -1    0    0    0  501 -0.0000000000e+00 +0.0000000000e+00 +2.2154211388e+01 2.2154211535e+01 2.5500000000e-03 0.0000e+00 -1.0000e+00
        2 -1    0    0  501    0 +0.0000000000e+00 -0.0000000000e+00 -2.1349697882e+03 2.1349697882e+03 2.5500000000e-03 0.0000e+00 1.0000e+00
  1000101  2    1    2    0    0 +1.6128086624e+02 +7.5072261367e+01 -1.0510110424e+03 1.0732760957e+03 1.2509997649e+02 5.0221e+01 0.0000e+00
 -1000101  2    1    2    0    0 -1.6128086624e+02 -7.5072261367e+01 -1.0618045344e+03 1.0838479040e+03 1.2510015005e+02 3.0005e+01 0.0000e+00
       11  1    3    3    0    0 +7.3815307574e-02 +2.9605771605e-03 -9.7089580535e-01 9.7370241378e-01 5.1100000000e-04 0.0000e+00 1.0000e+00
      255  1    3    3    0    0 +1.6120705093e+02 +7.5069300790e+01 -1.0500401466e+03 1.0723023933e+03 1.2500000000e+02 0.0000e+00 0.0000e+00
      -11  1    4    4    0    0 -7.6397331786e-02 -7.7829491313e-02 -2.4270204660e-01 2.6607992515e-01 5.1100000000e-04 0.0000e+00 -1.0000e+00
      255  1    4    4    0    0 -1.6120446891e+02 -7.4994431876e+01 -1.0615618324e+03 1.0835818241e+03 1.2500000000e+02 0.0000e+00 0.0000e+00
<mgrwt>
<rscale>  0 0.43496470E+03</rscale>
<asrwt>0</asrwt>
<pdfrwt beam="1">  1        2 0.32845673E+00 0.43496470E+03</pdfrwt>
<pdfrwt beam="2">  1       -2 0.34083419E-02 0.43496470E+03</pdfrwt>
<totfact> 0.21832666E+03</totfact>
</mgrwt>
</event>
<event>
 8      1 +1.6198320e-01 7.42898000e+02 7.81860800e-03 9.64655900e-02
        2 -1    0    0  501    0 +0.0000000000e+00 +0.0000000000e+00 +1.3037979857e+02 1.3037979860e+02 2.5500000000e-03 0.0000e+00 1.0000e+00
       -2 -1    0    0    0  501 -0.0000000000e+00 -0.0000000000e+00 -1.0582496606e+03 1.0582496606e+03 2.5500000000e-03 0.0000e+00 -1.0000e+00
  1000101  2    1    2    0    0 -2.3772809557e+02 -1.8942130354e+01 -5.4603403171e+01 2.7478168010e+02 1.2509991350e+02 1.0606e+02 0.0000e+00
 -1000101  2    1    2    0    0 +2.3772809557e+02 +1.8942130354e+01 -8.7326645890e+02 9.1384777913e+02 1.2509997390e+02 7.5546e+01 0.0000e+00
       11  1    3    3    0    0 -3.3917353427e-01 -9.5274081006e-02 -5.9272776941e-02 3.5725251584e-01 5.1100000000e-04 0.0000e+00 1.0000e+00
      255  1    3    3    0    0 -2.3738892203e+02 -1.8846856273e+01 -5.4544130394e+01 2.7442442759e+02 1.2500000000e+02 0.0000e+00 0.0000e+00
      -11  1    4    4    0    0 +2.5756808135e-01 -7.4297253083e-02 -9.2628394054e-01 9.6429435235e-01 5.1100000000e-04 0.0000e+00 -1.0000e+00
      255  1    4    4    0    0 +2.3747052749e+02 +1.9016427607e+01 -8.7234017496e+02 9.1288348478e+02 1.2500000000e+02 0.0000e+00 0.0000e+00
<mgrwt>
<rscale>  0 0.74289805E+03</rscale>
<asrwt>0</asrwt>
<pdfrwt beam="1">  1        2 0.20058431E-01 0.74289805E+03</pdfrwt>
<pdfrwt beam="2">  1       -2 0.16280763E+00 0.74289805E+03</pdfrwt>
<totfact> 0.68862196E+01</totfact>
</mgrwt>
</event>
<event>
 8      1 +1.6198320e-01 2.76091300e+02 7.81860800e-03 1.09784300e-01
       -2 -1    0    0    0  501 -0.0000000000e+00 +0.0000000000e+00 +6.0725083966e+01 6.0725084020e+01 2.5500000000e-03 0.0000e+00 -1.0000e+00
        2 -1    0    0  501    0 +0.0000000000e+00 -0.0000000000e+00 -3.1381758141e+02 3.1381758142e+02 2.5500000000e-03 0.0000e+00 1.0000e+00
  1000101  2    1    2    0    0 +2.3008343130e+01 -3.3423366903e+01 -1.8346031397e+02 2.2573037206e+02 1.2509999505e+02 3.7864e+01 0.0000e+00
 -1000101  2    1    2    0    0 -2.3008343130e+01 +3.3423366903e+01 -6.9632183477e+01 1.4881229338e+02 1.2509976969e+02 1.9096e+02 0.0000e+00
       11  1    3    3    0    0 -7.4357522401e-02 -3.2801121716e-02 -5.8147560253e-02 9.9931749750e-02 5.1100000000e-04 0.0000e+00 1.0000e+00
      255  1    3    3    0    0 +2.3082700653e+01 -3.3390565781e+01 -1.8340216641e+02 2.2563044031e+02 1.2500000000e+02 0.0000e+00 0.0000e+00
      -11  1    4    4    0    0 +3.9576221155e-03 -7.2136238915e-02 -1.4053931762e-02 7.3600773482e-02 5.1100000000e-04 0.0000e+00 -1.0000e+00
      255  1    4    4    0    0 -2.3012300752e+01 +3.3495503142e+01 -6.9618129545e+01 1.4873869261e+02 1.2500000000e+02 0.0000e+00 0.0000e+00
<mgrwt>
<rscale>  0 0.27609128E+03</rscale>
<asrwt>0</asrwt>
<pdfrwt beam="1">  1        2 0.48279627E-01 0.27609128E+03</pdfrwt>
<pdfrwt beam="2">  1       -2 0.93423208E-02 0.27609128E+03</pdfrwt>
<totfact> 0.76457922E+03</totfact>
</mgrwt>
</event>
<event>
 8      1 +1.6198320e-01 4.29987600e+02 7.81860800e-03 1.03386400e-01
        2 -1    0    0  501    0 +0.0000000000e+00 +0.0000000000e+00 +7.4624108008e+02 7.4624108009e+02 2.5500000000e-03 0.0000e+00 1.0000e+00
       -2 -1    0    0    0  501 -0.0000000000e+00 -0.0000000000e+00 -6.1940226697e+01 6.1940226750e+01 2.5500000000e-03 0.0000e+00 -1.0000e+00
  1000101  2    1    2    0    0 +1.3605910125e+02 -9.0212814107e+01 +4.5985670917e+02 5.0375455003e+02 1.2510005137e+02 2.4975e+01 0.0000e+00
 -1000101  2    1    2    0    0 -1.3605910125e+02 +9.0212814107e+01 +2.2444414422e+02 3.0442675680e+02 1.2510014197e+02 9.9569e+00 0.0000e+00
       11  1    3    3    0    0 +1.8558662826e-01 -2.2280240218e-02 +3.1099015892e-01 3.6284148848e-01 5.1100000000e-04 0.0000e+00 1.0000e+00
      255  1    3    3    0    0 +1.3587351462e+02 -9.0190533867e+01 +4.5954571901e+02 5.0339170855e+02 1.2500000000e+02 0.0000e+00 0.0000e+00
      -11  1    4    4    0    0 +7.6810365356e-03 -3.7929111675e-02 +3.3819156749e-02 5.1396617784e-02 5.1100000000e-04 0.0000e+00 -1.0000e+00
      255  1    4    4    0    0 -1.3606678229e+02 +9.0250743219e+01 +2.2441032506e+02 3.0437536019e+02 1.2500000000e+02 0.0000e+00 0.0000e+00
<mgrwt>
<rscale>  0 0.42998764E+03</rscale>
<asrwt>0</asrwt>
<pdfrwt beam="1">  1        2 0.11480632E+00 0.42998764E+03</pdfrwt>
<pdfrwt beam="2">  1       -2 0.95292655E-02 0.42998764E+03</pdfrwt>
<totfact> 0.27910805E+03</totfact>
</mgrwt>
</event>
<event>
 8      1 +1.6198320e-01 2.78145300e+02 7.81860800e-03 1.09670600e-01
       -2 -1    0    0    0  501 -0.0000000000e+00 +0.0000000000e+00 +1.4588837278e+02 1.4588837280e+02 2.5500000000e-03 0.0000e+00 -1.0000e+00
        2 -1    0    0  501    0 +0.0000000000e+00 -0.0000000000e+00 -1.3257532516e+02 1.3257532519e+02 2.5500000000e-03 0.0000e+00 1.0000e+00
  1000101  2    1    2    0    0 +1.7903957580e+01 +3.7112469570e+01 -3.8040991573e+01 1.3709499114e+02 1.2510008977e+02 5.5638e+01 0.0000e+00
 -1000101  2    1    2    0    0 -1.7903957580e+01 -3.7112469570e+01 +5.1354039188e+01 1.4136870685e+02 1.2509990743e+02 6.8454e+01 0.0000e+00
       11  1    3    3    0    0 +1.4280311004e-02 +1.3239348506e-01 -5.6722874110e-02 1.4474013865e-01 5.1100000000e-04 0.0000e+00 1.0000e+00
      255  1    3    3    0    0 +1.7889677269e+01 +3.6980076085e+01 -3.7984268699e+01 1.3695025100e+02 1.2500000000e+02 0.0000e+00 0.0000e+00
      -11  1    4    4    0    0 +7.6818519477e-02 +6.6167257881e-03 +6.3826281578e-02 1.0009456197e-01 5.1100000000e-04 0.0000e+00 -1.0000e+00
      255  1    4    4    0    0 -1.7980776100e+01 -3.7119086296e+01 +5.1290212906e+01 1.4126861228e+02 1.2500000000e+02 0.0000e+00 0.0000e+00
<mgrwt>
<rscale>  0 0.27814527E+03</rscale>
<asrwt>0</asrwt>
<pdfrwt beam="1">  1        2 0.20396204E-01 0.27814527E+03</pdfrwt>
<pdfrwt beam="2">  1       -2 0.22444365E-01 0.27814527E+03</pdfrwt>
<totfact> 0.46410911E+03</totfact>
</mgrwt>
</event>
<event>
 8      1 +1.6198320e-01 3.59657500e+02 7.81860800e-03 1.05872000e-01
        2 -1    0    0  501    0 +0.0000000000e+00 +0.0000000000e+00 +2.9198773742e+02 2.9198773743e+02 2.5500000000e-03 0.0000e+00 1.0000e+00
       -2 -1    0    0    0  501 -0.0000000000e+00 -0.0000000000e+00 -1.1075252826e+02 1.1075252829e+02 2.5500000000e-03 0.0000e+00 -1.0000e+00
  1000101  2    1    2    0    0 +9.0761388350e+01 +8.9076804902e+01 +1.1605581533e+02 2.1281749926e+02 1.2510007567e+02 2.5571e+02 0.0000e+00
 -1000101  2    1    2    0    0 -9.0761388350e+01 -8.9076804902e+01 +6.5179393831e+01 1.8992276646e+02 1.2509994825e+02 8.9896e+01 0.0000e+00
       11  1    3    3    0    0 +1.2479115306e-01 +2.7048724504e-03 +2.6488271910e-02 1.2760108890e-01 5.1100000000e-04 0.0000e+00 1.0000e+00
      255  1    3    3    0    0 +9.0636597197e+01 +8.9074100029e+01 +1.1602932706e+02 2.1268989817e+02 1.2500000000e+02 0.0000e+00 0.0000e+00
      -11  1    4    4    0    0 -7.6153016726e-03 -1.4694265554e-01 +6.1407837624e-02 1.5944064877e-01 5.1100000000e-04 0.0000e+00 -1.0000e+00
      255  1    4    4    0    0 -9.0753773048e+01 -8.8929862246e+01 +6.5117985993e+01 1.8976332581e+02 1.2500000000e+02 0.0000e+00 0.0000e+00
<mgrwt>
<rscale>  0 0.35965750E+03</rscale>
<asrwt>0</asrwt>
<pdfrwt beam="1">  1        2 0.44921190E-01 0.35965750E+03</pdfrwt>
<pdfrwt beam="2">  1       -2 0.17038851E-01 0.35965750E+03</pdfrwt>
<totfact> 0.31256322E+03</totfact>
</mgrwt>
</event>
<event>
 8      1 +1.6198320e-01 2.64961100e+02 7.81860800e-03 1.10419900e-01
       -2 -1    0    0    0  501 -0.0000000000e+00 +0.0000000000e+00 +1.0722133970e+01 1.0722134273e+01 2.5500000000e-03 0.0000e+00 -1.0000e+00
        2 -1    0    0  501    0 +0.0000000000e+00 -0.0000000000e+00 -1.6369032514e+03 1.6369032514e+03 2.5500000000e-03 0.0000e+00 1.0000e+00
  1000101  2    1    2    0    0 +2.8826898367e+01 +6.9299368130e+00 -1.0118883469e+03 1.0200230286e+03 1.2509971287e+02 1.8031e+02 0.0000e+00
 -1000101  2    1    2    0    0 -2.8826898367e+01 -6.9299368130e+00 -6.1429277045e+02 6.2760235701e+02 1.2510034614e+02 1.5467e+01 0.0000e+00
       11  1    3    3    0    0 -1.6687746630e-03 -6.5195902487e-02 -2.0564594780e-01 2.1574013878e-01 5.1100000000e-04 0.0000e+00 1.0000e+00
      255  1    3    3    0    0 +2.8828567141e+01 +6.9951327155e+00 -1.0116827010e+03 1.0198072885e+03 1.2500000000e+02 0.0000e+00 0.0000e+00
      -11  1    4    4    0    0 +7.8409152910e-02 -2.8366296308e-03 -3.0262315901e-01 3.1262930000e-01 5.1100000000e-04 0.0000e+00 -1.0000e+00
      255  1    4    4    0    0 -2.8905307520e+01 -6.9271001833e+00 -6.1399014730e+02 6.2728972771e+02 1.2500000000e+02 0.0000e+00 0.0000e+00
<mgrwt>
<rscale>  0 0.26496110E+03</rscale>
<asrwt>0</asrwt>
<pdfrwt beam="1">  1        2 0.25183107E+00 0.26496110E+03</pdfrwt>
<pdfrwt beam="2">  1       -2 0.16495604E-02 0.26496110E+03</pdfrwt>
<totfact> 0.11827704E+04</totfact>
</mgrwt>
</event>
<event>
 8      1 +1.6198320e-01 2.74952000e+02 7.81860800e-03 1.09847800e-01
        1 -1    0    0  501    0 +0.0000000000e+00 +0.0000000000e+00 +5.7962097690e+01 5.7962097909e+01 5.0400000000e-03 0.0000e+00 1.0000e+00
       -1 -1    0    0    0  501 -0.0000000000e+00 -0.0000000000e+00 -3.2606918396e+02 3.2606918399e+02 5.0400000000e-03 0.0000e+00 -1.0000e+00
  1000101  2    1    2    0    0 +4.8843448253e+01 -2.1984232356e+01 -1.0680542234e+02 1.7299286397e+02 1.2510053491e+02 2.0448e+02 0.0000e+00
 -1000101  2    1    2    0    0 -4.8843448253e+01 +2.1984232356e+01 -1.6130166393e+02 2.1103841793e+02 1.2509995263e+02 1.8192e+02 0.0000e+00
       11  1    3    3    0    0 +1.3505715684e-01 -6.0753332935e-02 -8.2970898999e-02 1.6975227327e-01 5.1100000000e-04 0.0000e+00 1.0000e+00
      255  1    3    3    0    0 +4.8708391096e+01 -2.1923479023e+01 -1.0672245144e+02 1.7282311170e+02 1.2500000000e+02 0.0000e+00 0.0000e+00
      -11  1    4    4    0    0 -1.2193354838e-01 +8.6579577524e-02 -1.7115388698e-01 2.2728336413e-01 5.1100000000e-04 0.0000e+00 -1.0000e+00
      255  1    4    4    0    0 -4.8721514705e+01 +2.1897652778e+01 -1.6113051004e+02 2.1081113457e+02 1.2500000000e+02 0.0000e+00 0.0000e+00
<mgrwt>
<rscale>  0 0.27495202E+03</rscale>
<asrwt>0</asrwt>
<pdfrwt beam="1">  1        1 0.89172460E-02 0.27495202E+03</pdfrwt>
<pdfrwt beam="2">  1       -1 0.50164489E-01 0.27495202E+03</pdfrwt>
<totfact> 0.30497207E+03</totfact>
</mgrwt>
</event>
<event>
 8      1 +1.6198320e-01 3.33019600e+02 7.81860800e-03 1.06980900e-01
       -2 -1    0    0    0  501 -0.0000000000e+00 +0.0000000000e+00 +1.5231052227e+01 1.5231052441e+01 2.5500000000e-03 0.0000e+00 -1.0000e+00
        2 -1    0    0  501    0 +0.0000000000e+00 -0.0000000000e+00 -1.8203277883e+03 1.8203277883e+03 2.5500000000e-03 0.0000e+00 1.0000e+00
  1000101  2    1    2    0    0 -2.9173098661e+00 -9.1304445580e+01 -1.2392002290e+03 1.2488443561e+03 1.2509998254e+02 3.6926e+01 0.0000e+00
 -1000101  2    1    2    0    0 +2.9173098661e+00 +9.1304445580e+01 -5.6589650713e+02 5.8671448474e+02 1.2510002934e+02 1.1656e+02 0.0000e+00
       11  1    3    3    0    0 -8.8806350643e-02 -1.0533496542e-01 -1.5062908662e+00 1.5125787442e+00 5.1100000000e-04 0.0000e+00 1.0000e+00
      255  1    3    3    0    0 -2.8285035155e+00 -9.1199110615e+01 -1.2376939381e+03 1.2473317773e+03 1.2500000000e+02 0.0000e+00 0.0000e+00
      -11  1    4    4    0    0 +3.2779712386e-02 +1.8837064259e-01 -6.2169330346e-01 6.5043126710e-01 5.1100000000e-04 0.0000e+00 -1.0000e+00
      255  1    4    4    0    0 +2.8845301538e+00 +9.1116074937e+01 -5.6527481382e+02 5.8606405347e+02 1.2500000000e+02 0.0000e+00 0.0000e+00
<mgrwt>
<rscale>  0 0.33301957E+03</rscale>
<asrwt>0</asrwt>
<pdfrwt beam="1">  1        2 0.28005026E+00 0.33301957E+03</pdfrwt>
<pdfrwt beam="2">  1       -2 0.23432403E-02 0.33301957E+03</pdfrwt>
<totfact> 0.56534400E+03</totfact>
</mgrwt>
</event>
<event>
 8      1 +1.6198320e-01 6.20366800e+02 7.81860800e-03 9.86403000e-02
        2 -1    0    0  501    0 +0.0000000000e+00 +0.0000000000e+00 +1.2044350265e+03 1.2044350265e+03 2.5500000000e-03 0.0000e+00 1.0000e+00
       -2 -1    0    0    0  501 -0.0000000000e+00 -0.0000000000e+00 -7.9882877348e+01 7.9882877389e+01 2.5500000000e-03 0.0000e+00 -1.0000e+00
  1000101  2    1    2    0    0 +2.5094613328e+02 -1.3262548711e+02 +5.6332550485e+02 6.4307784323e+02 1.2509998558e+02 9.5114e+01 0.0000e+00
 -1000101  2    1    2    0    0 -2.5094613328e+02 +1.3262548711e+02 +5.6122664429e+02 6.4124006066e+02 1.2509991005e+02 9.7404e+01 0.0000e+00
       11  1    3    3    0    0 +2.1809196826e-01 -1.6981486535e-02 +5.0687495586e-01 5.5206427117e-01 5.1100000000e-04 0.0000e+00 1.0000e+00
      255  1    3    3    0    0 +2.5072804131e+02 -1.3260850562e+02 +5.6281862990e+02 6.4252577895e+02 1.2500000000e+02 0.0000e+00 0.0000e+00
      -11  1    4    4    0    0 -3.9548237093e-01 +1.3680848552e-01 +7.2756582700e-01 8.3933018602e-01 5.1100000000e-04 0.0000e+00 -1.0000e+00
      255  1    4    4    0    0 -2.5055065090e+02 +1.3248867862e+02 +5.6049907847e+02 6.4040073048e+02 1.2500000000e+02 0.0000e+00 0.0000e+00
<mgrwt>
<rscale>  0 0.62036678E+03</rscale>
<asrwt>0</asrwt>
<pdfrwt beam="1">  1        2 0.18529768E+00 0.62036678E+03</pdfrwt>
<pdfrwt beam="2">  1       -2 0.12289674E-01 0.62036678E+03</pdfrwt>
<totfact> 0.93160502E+02</totfact>
</mgrwt>
</event>
<event>
 8      1 +1.6198320e-01 3.31351300e+02 7.81860800e-03 1.07054100e-01
        2 -1    0    0  501    0 +0.0000000000e+00 +0.0000000000e+00 +1.8576735789e+03 1.8576735789e+03 2.5500000000e-03 0.0000e+00 1.0000e+00
       -2 -1    0    0    0  501 -0.0000000000e+00 -0.0000000000e+00 -1.4775698513e+01 1.4775698733e+01 2.5500000000e-03 0.0000e+00 -1.0000e+00
  1000101  2    1    2    0    0 +4.7655103570e+01 -9.7346368129e+01 +9.6184258646e+02 9.7598077931e+02 1.2509994477e+02 1.3698e+02 0.0000e+00
 -1000101  2    1    2    0    0 -4.7655103570e+01 +9.7346368129e+01 +8.8105529390e+02 8.9646849830e+02 1.2510001293e+02 9.0637e+01 0.0000e+00
       11  1    3    3    0    0 -5.1774223137e-02 -1.9908989536e-02 +6.9369554968e-01 6.9590999046e-01 5.1100000000e-04 0.0000e+00 1.0000e+00
      255  1    3    3    0    0 +4.7706877793e+01 -9.7326459139e+01 +9.6114889091e+02 9.7528486932e+02 1.2500000000e+02 0.0000e+00 0.0000e+00
      -11  1    4    4    0    0 +1.7646121539e-03 +1.3404144562e-01 +4.0986216842e-01 4.3122787621e-01 5.1100000000e-04 0.0000e+00 -1.0000e+00
      255  1    4    4    0    0 -4.7656868182e+01 +9.7212326683e+01 +8.8064543174e+02 8.9603727042e+02 1.2500000000e+02 0.0000e+00 0.0000e+00
<mgrwt>
<rscale>  0 0.33135132E+03</rscale>
<asrwt>0</asrwt>
<pdfrwt beam="1">  1        2 0.28579574E+00 0.33135132E+03</pdfrwt>
<pdfrwt beam="2">  1       -2 0.22731859E-02 0.33135132E+03</pdfrwt>
<totfact> 0.56512275E+03</totfact>
</mgrwt>
</event>
<event>
 8      1 +1.6198320e-01 3.70389900e+02 7.81860800e-03 1.05454400e-01
        2 -1    0    0  501    0 +0.0000000000e+00 +0.0000000000e+00 +7.9298488563e+02 7.9298488563e+02 2.5500000000e-03 0.0000e+00 1.0000e+00
       -2 -1    0    0    0  501 -0.0000000000e+00 -0.0000000000e+00 -4.3250712250e+01 4.3250712325e+01 2.5500000000e-03 0.0000e+00 -1.0000e+00
  1000101  2    1    2    0    0 +1.1287909098e+02 +7.6488745056e+01 +3.5814046895e+02 4.0312148333e+02 1.2510042973e+02 1.0424e+02 0.0000e+00
 -1000101  2    1    2    0    0 -1.1287909098e+02 -7.6488745056e+01 +3.9159370442e+02 4.3311411463e+02 1.2509991865e+02 6.3160e+00 0.0000e+00
       11  1    3    3    0    0 +6.8384371672e-02 -3.2066599764e-02 +3.1667217872e-01 3.2555524724e-01 5.1100000000e-04 0.0000e+00 1.0000e+00
      255  1    3    3    0    0 +1.1281070660e+02 +7.6520811656e+01 +3.5782379677e+02 4.0279592808e+02 1.2500000000e+02 0.0000e+00 0.0000e+00
      -11  1    4    4    0    0 -2.1630830518e-01 -8.9212491052e-02 +4.2211718364e-01 4.8262959845e-01 5.1100000000e-04 0.0000e+00 -1.0000e+00
      255  1    4    4    0    0 -1.1266278267e+02 -7.6399532565e+01 +3.9117158724e+02 4.3263148503e+02 1.2500000000e+02 0.0000e+00 0.0000e+00
<mgrwt>
<rscale>  0 0.37038985E+03</rscale>
<asrwt>0</asrwt>
<pdfrwt beam="1">  1        2 0.12199768E+00 0.37038985E+03</pdfrwt>
<pdfrwt beam="2">  1       -2 0.66539552E-02 0.37038985E+03</pdfrwt>
<totfact> 0.45461551E+03</totfact>
</mgrwt>
</event>
<event>
 8      1 +1.6198320e-01 4.19886600e+02 7.81860800e-03 1.03710300e-01
        2 -1    0    0  501    0 +0.0000000000e+00 +0.0000000000e+00 +3.8989474923e+01 3.8989475007e+01 2.5500000000e-03 0.0000e+00 1.0000e+00
       -2 -1    0    0    0  501 -0.0000000000e+00 -0.0000000000e+00 -1.1304638927e+03 1.1304638928e+03 2.5500000000e-03 0.0000e+00 -1.0000e+00
  1000101  2    1    2    0    0 +1.6217845951e+02 -2.8917514394e+01 -6.4569878144e+02 6.7802286101e+02 1.2509999331e+02 2.4417e+02 0.0000e+00
 -1000101  2    1    2    0    0 -1.6217845951e+02 +2.8917514394e+01 -4.4577563639e+02 4.9143050675e+02 1.2509975860e+02 1.8568e+02 0.0000e+00
       11  1    3    3    0    0 +2.8491293846e-01 -2.3803568472e-02 -9.8413626434e-01 1.0248250779e+00 5.1100000000e-04 0.0000e+00 1.0000e+00
      255  1    3    3    0    0 +1.6189354658e+02 -2.8893710825e+01 -6.4471464518e+02 6.7699803593e+02 1.2500000000e+02 0.0000e+00 0.0000e+00
      -11  1    4    4    0    0 -4.5528510767e-02 -7.2206765104e-02 -2.0810132112e-01 2.2492906258e-01 5.1100000000e-04 0.0000e+00 -1.0000e+00
      255  1    4    4    0    0 -1.6213293100e+02 +2.8989721159e+01 -4.4556753506e+02 4.9120557769e+02 1.2500000000e+02 0.0000e+00 0.0000e+00
<mgrwt>
<rscale>  0 0.41988662E+03</rscale>
<asrwt>0</asrwt>
<pdfrwt beam="1">  1        2 0.59983816E-02 0.41988662E+03</pdfrwt>
<pdfrwt beam="2">  1       -2 0.17391750E+00 0.41988662E+03</pdfrwt>
<totfact> 0.26445734E+02</totfact>
</mgrwt>
</event>
<event>
 8      1 +1.6198320e-01 2.66553500e+02 7.81860800e-03 1.10326800e-01
       -2 -1    0    0    0  501 -0.0000000000e+00 +0.0000000000e+00 +7.1088473619e+00 7.1088478192e+00 2.5500000000e-03 0.0000e+00 -1.0000e+00
        2 -1    0    0  501    0 +0.0000000000e+00 -0.0000000000e+00 -2.4986742374e+03 2.4986742375e+03 2.5500000000e-03 0.0000e+00 1.0000e+00
  1000101  2    1    2    0    0 +3.4519816743e+01 +2.3162417306e+01 -1.0614309258e+03 1.0695857732e+03 1.2509996266e+02 4.7394e+01 0.0000e+00
 -1000101  2    1    2    0    0 -3.4519816743e+01 -2.3162417306e+01 -1.4301344643e+03 1.4361973121e+03 1.2510003173e+02 1.0250e+02 0.0000e+00
       11  1    3    3    0    0 -7.4936335950e-02 +1.1734620543e-02 -7.4141501604e-01 7.4528494075e-01 5.1100000000e-04 0.0000e+00 1.0000e+00
      255  1    3    3    0    0 +3.4594753079e+01 +2.3150682686e+01 -1.0606895108e+03 1.0688404883e+03 1.2500000000e+02 0.0000e+00 0.0000e+00
      -11  1    4    4    0    0 +8.0903742886e-03 +3.5943900683e-02 -8.5850172193e-02 9.3423398242e-02 5.1100000000e-04 0.0000e+00 -1.0000e+00
      255  1    4    4    0    0 -3.4527907117e+01 -2.3198361207e+01 -1.4300486141e+03 1.4361038887e+03 1.2500000000e+02 0.0000e+00 0.0000e+00
<mgrwt>
<rscale>  0 0.26655352E+03</rscale>
<asrwt>0</asrwt>
<pdfrwt beam="1">  1        2 0.38441072E+00 0.26655352E+03</pdfrwt>
<pdfrwt beam="2">  1       -2 0.10936709E-02 0.26655352E+03</pdfrwt>
<totfact> 0.75188988E+03</totfact>
</mgrwt>
</event>
<event>
 8      1 +1.6198320e-01 3.03509300e+02 7.81860800e-03 1.08349900e-01
       -2 -1    0    0    0  501 -0.0000000000e+00 +0.0000000000e+00 +2.6887189163e+01 2.6887189284e+01 2.5500000000e-03 0.0000e+00 -1.0000e+00
        2 -1    0    0  501    0 +0.0000000000e+00 -0.0000000000e+00 -8.5652219051e+02 8.5652219051e+02 2.5500000000e-03 0.0000e+00 1.0000e+00
  1000101  2    1    2    0    0 -7.9897876685e+01 +3.1533736147e+01 -4.1135731035e+02 4.3845514292e+02 1.2510007339e+02 1.6660e+02 0.0000e+00
 -1000101  2    1    2    0    0 +7.9897876685e+01 -3.1533736147e+01 -4.1827769099e+02 4.4495423687e+02 1.2509995569e+02 1.0467e+01 0.0000e+00
       11  1    3    3    0    0 -5.0030080532e-02 +5.4786112420e-02 -5.9901947689e-01 6.0359682064e-01 5.1100000000e-04 0.0000e+00 1.0000e+00
      255  1    3    3    0    0 -7.9847846604e+01 +3.1478950034e+01 -4.1075829087e+02 4.3785154610e+02 1.2500000000e+02 0.0000e+00 0.0000e+00
      -11  1    4    4    0    0 +1.7345559719e-01 -3.4367369278e-02 -3.8743065813e-01 4.2587643307e-01 5.1100000000e-04 0.0000e+00 -1.0000e+00
      255  1    4    4    0    0 +7.9724421088e+01 -3.1499368778e+01 -4.1789026033e+02 4.4452836044e+02 1.2500000000e+02 0.0000e+00 0.0000e+00
<mgrwt>
<rscale>  0 0.30350930E+03</rscale>
<asrwt>0</asrwt>
<pdfrwt beam="1">  1        2 0.13177262E+00 0.30350930E+03</pdfrwt>
<pdfrwt beam="2">  1       -2 0.41364913E-02 0.30350930E+03</pdfrwt>
<totfact> 0.84864071E+03</totfact>
</mgrwt>
</event>
<event>
 8      1 +1.6198320e-01 3.14957300e+02 7.81860800e-03 1.07799400e-01
       -2 -1    0    0    0  501 -0.0000000000e+00 +0.0000000000e+00 +4.5953875254e+01 4.5953875324e+01 2.5500000000e-03 0.0000e+00 -1.0000e+00
        2 -1    0    0  501    0 +0.0000000000e+00 -0.0000000000e+00 -5.3966127126e+02 5.3966127126e+02 2.5500000000e-03 0.0000e+00 1.0000e+00
  1000101  2    1    2    0    0 -7.3177041713e+01 +4.5208922178e+01 -3.2465249363e+02 3.5839657302e+02 1.2510050303e+02 2.4452e+02 0.0000e+00
 -1000101  2    1    2    0    0 +7.3177041713e+01 -4.5208922178e+01 -1.6905490238e+02 2.2721857356e+02 1.2509993636e+02 3.1354e+02 0.0000e+00
       11  1    3    3    0    0 -8.7906076125e-02 +1.4024265704e-01 -3.0602930690e-01 3.4792194366e-01 5.1100000000e-04 0.0000e+00 1.0000e+00
      255  1    3    3    0    0 -7.3089135637e+01 +4.5068679521e+01 -3.2434646432e+02 3.5804865108e+02 1.2500000000e+02 0.0000e+00 0.0000e+00
      -11  1    4    4    0    0 +4.8659155201e-02 -1.3732125083e-01 -1.3806462662e-01 2.0071607200e-01 5.1100000000e-04 0.0000e+00 -1.0000e+00
      255  1    4    4    0    0 +7.3128382558e+01 -4.5071600927e+01 -1.6891683775e+02 2.2701785749e+02 1.2500000000e+02 0.0000e+00 0.0000e+00
<mgrwt>
<rscale>  0 0.31495731E+03</rscale>
<asrwt>0</asrwt>
<pdfrwt beam="1">  1        2 0.83024806E-01 0.31495731E+03</pdfrwt>
<pdfrwt beam="2">  1       -2 0.70698274E-02 0.31495731E+03</pdfrwt>
<totfact> 0.65522612E+03</totfact>
</mgrwt>
</event>
<event>
 8      1 +1.6198320e-01 2.59221300e+02 7.81860800e-03 1.10761200e-01
        2 -1    0    0  501    0 +0.0000000000e+00 +0.0000000000e+00 +2.4796751894e+03 2.4796751894e+03 2.5500000000e-03 0.0000e+00 1.0000e+00
       -2 -1    0    0    0  501 -0.0000000000e+00 -0.0000000000e+00 -6.7746451088e+00 6.7746455887e+00 2.5500000000e-03 0.0000e+00 -1.0000e+00
  1000101  2    1    2    0    0 +4.1239631448e+00 -3.3630138234e+01 +1.2273656222e+03 1.2341897733e+03 1.2510009024e+02 4.6720e+01 0.0000e+00
 -1000101  2    1    2    0    0 -4.1239631448e+00 +3.3630138234e+01 +1.2455349221e+03 1.2522600617e+03 1.2510006715e+02 1.0219e+02 0.0000e+00
       11  1    3    3    0    0 +7.2775674986e-02 -6.3935924426e-02 +1.6920669971e+00 1.6948377755e+00 5.1100000000e-04 0.0000e+00 1.0000e+00
      255  1    3    3    0    0 +4.0511874698e+00 -3.3566202310e+01 +1.2256735552e+03 1.2324949355e+03 1.2500000000e+02 0.0000e+00 0.0000e+00
      -11  1    4    4    0    0 -9.9572232380e-02 +5.5793155408e-02 +1.0632445166e+00 1.0693533882e+00 5.1100000000e-04 0.0000e+00 -1.0000e+00
      255  1    4    4    0    0 -4.0243909124e+00 +3.3574345079e+01 +1.2444716776e+03 1.2511907083e+03 1.2500000000e+02 0.0000e+00 0.0000e+00
<mgrwt>
<rscale>  0 0.25922130E+03</rscale>
<asrwt>0</asrwt>
<pdfrwt beam="1">  1        2 0.38148893E+00 0.25922130E+03</pdfrwt>
<pdfrwt beam="2">  1       -2 0.10422519E-02 0.25922130E+03</pdfrwt>
<totfact> 0.82587968E+03</totfact>
</mgrwt>
</event>
<event>
 8      1 +1.6198320e-01 3.38723300e+02 7.81860800e-03 1.06734100e-01
        2 -1    0    0  501    0 +0.0000000000e+00 +0.0000000000e+00 +1.5439488535e+03 1.5439488535e+03 2.5500000000e-03 0.0000e+00 1.0000e+00
       -2 -1    0    0    0  501 -0.0000000000e+00 -0.0000000000e+00 -1.8577923566e+01 1.8577923741e+01 2.5500000000e-03 0.0000e+00 -1.0000e+00
  1000101  2    1    2    0    0 +4.6377662270e+01 +6.7889581818e+01 +3.9730765569e+02 4.2457395860e+02 1.2509912138e+02 9.3237e+01 0.0000e+00
 -1000101  2    1    2    0    0 -4.6377662270e+01 -6.7889581818e+01 +1.1280632742e+03 1.1379528186e+03 1.2509989567e+02 2.1308e+02 0.0000e+00
       11  1    3    3    0    0 +2.8942179064e-02 -4.4101649235e-02 +5.2469894044e-02 7.4404005919e-02 5.1100000000e-04 0.0000e+00 1.0000e+00
      255  1    3    3    0    0 +4.6348720091e+01 +6.7933683467e+01 +3.9725518580e+02 4.2449955459e+02 1.2500000000e+02 0.0000e+00 0.0000e+00
      -11  1    4    4    0    0 -1.3676414670e-01 -7.7216449847e-02 +9.4854811357e-01 9.6146273814e-01 5.1100000000e-04 0.0000e+00 -1.0000e+00
      255  1    4    4    0    0 -4.6240898123e+01 -6.7812365368e+01 +1.1271147261e+03 1.1369913559e+03 1.2500000000e+02 0.0000e+00 0.0000e+00
<mgrwt>
<rscale>  0 0.33872327E+03</rscale>
<asrwt>0</asrwt>
<pdfrwt beam="1">  1        2 0.23753075E+00 0.33872327E+03</pdfrwt>
<pdfrwt beam="2">  1       -2 0.28581402E-02 0.33872327E+03</pdfrwt>
<totfact> 0.58993100E+03</totfact>
</mgrwt>
</event>
<event>
 8      1 +1.6198320e-01 4.00252900e+02 7.81860800e-03 1.04369200e-01
       -1 -1    0    0    0  501 -0.0000000000e+00 +0.0000000000e+00 +4.0922632939e+02 4.0922632942e+02 5.0400000000e-03 0.0000e+00 -1.0000e+00
        1 -1    0    0  501    0 +0.0000000000e+00 -0.0000000000e+00 -9.7869072769e+01 9.7869072899e+01 5.0400000000e-03 0.0000e+00 1.0000e+00
  1000101  2    1    2    0    0 -1.2392734613e+02 -1.8602649102e+01 +2.7382730605e+02 3.2609114759e+02 1.2509994934e+02 3.1837e+01 0.0000e+00
 -1000101  2    1    2    0    0 +1.2392734613e+02 +1.8602649102e+01 +3.7529950564e+01 1.8100425472e+02 1.2509994950e+02 6.3393e+01 0.0000e+00
       11  1    3    3    0    0 -1.3577509480e-01 -4.4862633949e-02 +9.2984430309e-02 1.7056933398e-01 5.1100000000e-04 0.0000e+00 1.0000e+00
      255  1    3    3    0    0 -1.2379157104e+02 -1.8557786468e+01 +2.7373432162e+02 3.2592057826e+02 1.2500000000e+02 0.0000e+00 0.0000e+00
      -11  1    4    4    0    0 +1.4729221175e-01 +1.9178400257e-02 +1.3314395136e-01 1.9947526058e-01 5.1100000000e-04 0.0000e+00 -1.0000e+00
      255  1    4    4    0    0 +1.2378005392e+02 +1.8583470702e+01 +3.7396806613e+01 1.8080477946e+02 1.2500000000e+02 0.0000e+00 0.0000e+00
<mgrwt>
<rscale>  0 0.40025293E+03</rscale>
<asrwt>0</asrwt>
<pdfrwt beam="1">  1        1 0.15056780E-01 0.40025293E+03</pdfrwt>
<pdfrwt beam="2">  1       -1 0.62957897E-01 0.40025293E+03</pdfrwt>
<totfact> 0.98482066E+02</totfact>
</mgrwt>
</event>
<event>
 8      1 +1.6198320e-01 3.11659400e+02 7.81860800e-03 1.07955300e-01
        2 -1    0    0  501    0 +0.0000000000e+00 +0.0000000000e+00 +3.5681952540e+02 3.5681952541e+02 2.5500000000e-03 0.0000e+00 1.0000e+00
       -2 -1    0    0    0  501 -0.0000000000e+00 -0.0000000000e+00 -6.8053730507e+01 6.8053730554e+01 2.5500000000e-03 0.0000e+00 -1.0000e+00
  1000101  2    1    2    0    0 +7.4649579678e+00 -5.9693455051e+01 +4.7853604949e+01 1.4682989349e+02 1.2510002375e+02 4.9570e+01 0.0000e+00
 -1000101  2    1    2    0    0 -7.4649579678e+00 +5.9693455051e+01 +2.4091218995e+02 2.7804336248e+02 1.2510153468e+02 4.4428e+01 0.0000e+00
       11  1    3    3    0    0 -9.0968200872e-02 -5.0100785837e-02 +1.0636329238e-02 1.0439681476e-01 5.1100000000e-04 0.0000e+00 1.0000e+00
      255  1    3    3    0    0 +7.5559261686e+00 -5.9643354265e+01 +4.7842968619e+01 1.4672549668e+02 1.2500000000e+02 0.0000e+00 0.0000e+00
      -11  1    4    4    0    0 -8.6435580368e-03 +1.3595218722e-02 -2.3475224375e-02 2.8476101351e-02 5.1100000000e-04 0.0000e+00 -1.0000e+00
      255  1    4    4    0    0 -7.4563144097e+00 +5.9679859832e+01 +2.4093566517e+02 2.7801488638e+02 1.2500000000e+02 0.0000e+00 0.0000e+00
<mgrwt>
<rscale>  0 0.31165943E+03</rscale>
<asrwt>0</asrwt>
<pdfrwt beam="1">  1        2 0.54895312E-01 0.31165943E+03</pdfrwt>
<pdfrwt beam="2">  1       -2 0.10469805E-01 0.31165943E+03</pdfrwt>
<totfact> 0.55740571E+03</totfact>
</mgrwt>
</event>
<event>
 8      1 +1.6198320e-01 3.07954300e+02 7.81860800e-03 1.08133100e-01
        2 -1    0    0  501    0 +0.0000000000e+00 +0.0000000000e+00 +6.0429354431e+01 6.0429354485e+01 2.5500000000e-03 0.0000e+00 1.0000e+00
       -2 -1    0    0    0  501 -0.0000000000e+00 -0.0000000000e+00 -3.9234180139e+02 3.9234180140e+02 2.5500000000e-03 0.0000e+00 -1.0000e+00
  1000101  2    1    2    0    0 -6.2882118068e+01 +3.8700788777e+01 -2.4102581598e+02 2.8141673663e+02 1.2510005539e+02 3.1376e+01 0.0000e+00
 -1000101  2    1    2    0    0 +6.2882118068e+01 -3.8700788777e+01 -9.0886630978e+01 1.7135441926e+02 1.2510014182e+02 5.6459e+01 0.0000e+00
       11  1    3    3    0    0 +4.3607897182e-02 -1.0235164586e-03 -1.2667347344e-02 4.5424873067e-02 5.1100000000e-04 0.0000e+00 1.0000e+00
      255  1    3    3    0    0 -6.2925725966e+01 +3.8701812294e+01 -2.4101314864e+02 2.8137131175e+02 1.2500000000e+02 0.0000e+00 0.0000e+00
      -11  1    4    4    0    0 -5.5304028110e-03 -3.9988025639e-02 -1.5984572746e-01 1.6486523363e-01 5.1100000000e-04 0.0000e+00 -1.0000e+00
      255  1    4    4    0    0 +6.2887648471e+01 -3.8660800752e+01 -9.0726785251e+01 1.7118955402e+02 1.2500000000e+02 0.0000e+00 0.0000e+00
<mgrwt>
<rscale>  0 0.30795429E+03</rscale>
<asrwt>0</asrwt>
<pdfrwt beam="1">  1        2 0.92968240E-02 0.30795429E+03</pdfrwt>
<pdfrwt beam="2">  1       -2 0.60360275E-01 0.30795429E+03</pdfrwt>
<totfact> 0.18376938E+03</totfact>
</mgrwt>
</event>
<event>
 8      1 +1.6198320e-01 3.21112900e+02 7.81860800e-03 1.07513800e-01
       -2 -1    0    0    0  501 -0.0000000000e+00 +0.0000000000e+00 +8.3767742865e+02 8.3767742866e+02 2.5500000000e-03 0.0000e+00 -1.0000e+00
        2 -1    0    0  501    0 +0.0000000000e+00 -0.0000000000e+00 -3.0773619732e+01 3.0773619837e+01 2.5500000000e-03 0.0000e+00 1.0000e+00
  1000101  2    1    2    0    0 -5.7191404625e+01 -6.3351411634e+01 +2.5922017531e+02 3.0021549501e+02 1.2509990423e+02 7.5667e+01 0.0000e+00
 -1000101  2    1    2    0    0 +5.7191404625e+01 +6.3351411634e+01 +5.4768363362e+02 5.6823555349e+02 1.2510005434e+02 2.2717e+02 0.0000e+00
       11  1    3    3    0    0 +7.4220020199e-03 -6.3222426823e-02 +1.3312946201e-02 6.5035813403e-02 5.1100000000e-04 0.0000e+00 1.0000e+00
      255  1    3    3    0    0 -5.7198826627e+01 -6.3288189207e+01 +2.5920686236e+02 3.0015045919e+02 1.2500000000e+02 0.0000e+00 0.0000e+00
      -11  1    4    4    0    0 -2.2318320816e-02 -4.5829634467e-02 +1.2132073276e-01 1.3159576041e-01 5.1100000000e-04 0.0000e+00 -1.0000e+00
      255  1    4    4    0    0 +5.7213722946e+01 +6.3397241269e+01 +5.4756231288e+02 5.6810395773e+02 1.2500000000e+02 0.0000e+00 0.0000e+00
<mgrwt>
<rscale>  0 0.32111286E+03</rscale>
<asrwt>0</asrwt>
<pdfrwt beam="1">  1        2 0.47344030E-02 0.32111286E+03</pdfrwt>
<pdfrwt beam="2">  1       -2 0.12887345E+00 0.32111286E+03</pdfrwt>
<totfact> 0.79080252E+02</totfact>
</mgrwt>
</event>
<event>
 8      1 +1.6198320e-01 2.91202500e+02 7.81860800e-03 1.08972300e-01
       -2 -1    0    0    0  501 -0.0000000000e+00 +0.0000000000e+00 +1.6401665148e+01 1.6401665346e+01 2.5500000000e-03 0.0000e+00 -1.0000e+00
        2 -1    0    0  501    0 +0.0000000000e+00 -0.0000000000e+00 -1.2925344875e+03 1.2925344875e+03 2.5500000000e-03 0.0000e+00 1.0000e+00
  1000101  2    1    2    0    0 -1.5723440730e+01 +7.2443514244e+01 -6.0490829751e+02 6.2214094544e+02 1.2510003298e+02 1.1866e+02 0.0000e+00
 -1000101  2    1    2    0    0 +1.5723440730e+01 -7.2443514244e+01 -6.7122452480e+02 6.8679520737e+02 1.2509997932e+02 1.4828e+02 0.0000e+00
       11  1    3    3    0    0 -9.7404655777e-02 +1.0361546999e-02 -5.4040943091e-01 5.4921547935e-01 5.1100000000e-04 0.0000e+00 1.0000e+00
      255  1    3    3    0    0 -1.5626036074e+01 +7.2433152697e+01 -6.0436788808e+02 6.2159172996e+02 1.2500000000e+02 0.0000e+00 0.0000e+00
      -11  1    4    4    0    0 -4.4159307385e-02 -1.0802185782e-01 -3.0252714752e-01 3.2425561260e-01 5.1100000000e-04 0.0000e+00 -1.0000e+00
      255  1    4    4    0    0 +1.5767600037e+01 -7.2335492387e+01 -6.7092199765e+02 6.8647095175e+02 1.2500000000e+02 0.0000e+00 0.0000e+00
<mgrwt>
<rscale>  0 0.29120246E+03</rscale>
<asrwt>0</asrwt>
<pdfrwt beam="1">  1        2 0.19885138E+00 0.29120246E+03</pdfrwt>
<pdfrwt beam="2">  1       -2 0.25233341E-02 0.29120246E+03</pdfrwt>
<totfact> 0.97181974E+03</totfact>
</mgrwt>
</event>
<event>
 8      1 +1.6198320e-01 4.04157600e+02 7.81860800e-03 1.04234900e-01
       -2 -1    0    0    0  501 -0.0000000000e+00 +0.0000000000e+00 +1.5828676913e+01 1.5828677118e+01 2.5500000000e-03 0.0000e+00 -1.0000e+00
        2 -1    0    0  501    0 +0.0000000000e+00 -0.0000000000e+00 -2.5798645362e+03 2.5798645362e+03 2.5500000000e-03 0.0000e+00 1.0000e+00
  1000101  2    1    2    0    0 +7.0493583621e+01 +5.3816558798e+00 -2.1945418933e+03 2.1992413094e+03 1.2509959301e+02 9.0281e+01 0.0000e+00
 -1000101  2    1    2    0    0 -7.0493583621e+01 -5.3816558798e+00 -3.6949396603e+02 3.9645190392e+02 1.2510001453e+02 1.7086e+02 0.0000e+00
       11  1    3    3    0    0 -3.0071201771e-02 -6.0676559323e-02 -8.1481351425e-01 8.1762292419e-01 5.1100000000e-04 0.0000e+00 1.0000e+00
      255  1    3    3    0    0 +7.0523654823e+01 +5.4423324392e+00 -2.1937270798e+03 2.1984236865e+03 1.2500000000e+02 0.0000e+00 0.0000e+00
      -11  1    4    4    0    0 -1.6357838064e-01 -7.0882834354e-03 -3.3271653749e-01 3.7082163612e-01 5.1100000000e-04 0.0000e+00 -1.0000e+00
      255  1    4    4    0    0 -7.0330005240e+01 -5.3745675964e+00 -3.6916124950e+02 3.9608108228e+02 1.2500000000e+02 0.0000e+00 0.0000e+00
<mgrwt>
<rscale>  0 0.40415761E+03</rscale>
<asrwt>0</asrwt>
<pdfrwt beam="1">  1        2 0.39690190E+00 0.40415761E+03</pdfrwt>
<pdfrwt beam="2">  1       -2 0.24351831E-02 0.40415761E+03</pdfrwt>
<totfact> 0.20688704E+03</totfact>
</mgrwt>
</event>
<event>
 8      1 +1.6198320e-01 4.45769900e+02 7.81860800e-03 1.02899100e-01
       -2 -1    0    0    0  501 -0.0000000000e+00 +0.0000000000e+00 +1.6489333947e+02 1.6489333949e+02 2.5500000000e-03 0.0000e+00 -1.0000e+00
        2 -1    0    0  501    0 +0.0000000000e+00 -0.0000000000e+00 -3.0127177797e+02 3.0127177798e+02 2.5500000000e-03 0.0000e+00 1.0000e+00
  1000101  2    1    2    0    0 -1.0206054466e+02 +1.5204442051e+02 -4.4947871820e+01 2.2628336567e+02 1.2509991931e+02 3.6478e+02 0.0000e+00
 -1000101  2    1    2    0    0 +1.0206054466e+02 -1.5204442051e+02 -9.1430566682e+01 2.3988175180e+02 1.2509934348e+02 1.8556e+01 0.0000e+00
       11  1    3    3    0    0 -5.0283746631e-02 +1.7550891624e-02 -9.4478390515e-02 1.0845697934e-01 5.1100000000e-04 0.0000e+00 1.0000e+00
      255  1    3    3    0    0 -1.0201026091e+02 +1.5202686962e+02 -4.4853393429e+01 2.2617490869e+02 1.2500000000e+02 0.0000e+00 0.0000e+00
      -11  1    4    4    0    0 +1.5033318917e-01 -1.6536031095e-01 -8.0502415765e-03 2.2362729644e-01 5.1100000000e-04 0.0000e+00 -1.0000e+00
      255  1    4    4    0    0 +1.0191021147e+02 -1.5187906020e+02 -9.1422516441e+01 2.3965812450e+02 1.2500000000e+02 0.0000e+00 0.0000e+00
<mgrwt>
<rscale>  0 0.44576994E+03</rscale>
<asrwt>0</asrwt>
<pdfrwt beam="1">  1        2 0.46349504E-01 0.44576994E+03</pdfrwt>
<pdfrwt beam="2">  1       -2 0.25368206E-01 0.44576994E+03</pdfrwt>
<totfact> 0.15178567E+03</totfact>
</mgrwt>
</event>
<event>
 8      1 +1.6198320e-01 2.55498200e+02 7.81860800e-03 1.10987900e-01
        2 -1    0    0  501    0 +0.0000000000e+00 +0.0000000000e+00 +1.1869787524e+03 1.1869787524e+03 2.5500000000e-03 0.0000e+00 1.0000e+00
       -2 -1    0    0    0  501 -0.0000000000e+00 -0.0000000000e+00 -1.3749048617e+01 1.3749048853e+01 2.5500000000e-03 0.0000e+00 -1.0000e+00
  1000101  2    1    2    0    0 -9.5247789204e-01 -8.3208131198e+00 +7.0169994816e+02 7.1281341051e+02 1.2509995127e+02 1.6873e+02 0.0000e+00
 -1000101  2    1    2    0    0 +9.5247789204e-01 +8.3208131198e+00 +4.7152975563e+02 4.8791439075e+02 1.2509995650e+02 2.7566e+02 0.0000e+00
       11  1    3    3    0    0 -3.8208747845e-02 +8.0150069470e-02 +7.1627414005e-01 7.2175677820e-01 5.1100000000e-04 0.0000e+00 1.0000e+00
      255  1    3    3    0    0 -9.1426914420e-01 -8.4009631893e+00 +7.0098367402e+02 7.1209165374e+02 1.2500000000e+02 0.0000e+00 0.0000e+00
      -11  1    4    4    0    0 -3.6613019296e-02 -2.0340597473e-02 +2.3748238126e-02 4.8150732321e-02 5.1100000000e-04 0.0000e+00 -1.0000e+00
      255  1    4    4    0    0 +9.8909091134e-01 +8.3411537173e+00 +4.7150600739e+02 4.8786624002e+02 1.2500000000e+02 0.0000e+00 0.0000e+00
<mgrwt>
<rscale>  0 0.25549817E+03</rscale>
<asrwt>0</asrwt>
<pdfrwt beam="1">  1        2 0.18261204E+00 0.25549817E+03</pdfrwt>
<pdfrwt beam="2">  1       -2 0.21152391E-02 0.25549817E+03</pdfrwt>
<totfact> 0.14404078E+04</totfact>
</mgrwt>
</event>
<event>
 8      1 +1.6198320e-01 3.14557800e+02 7.81860800e-03 1.07818200e-01
        2 -1    0    0  501    0 +0.0000000000e+00 +0.0000000000e+00 +1.3382541182e+03 1.3382541182e+03 2.5500000000e-03 0.0000e+00 1.0000e+00
       -2 -1    0    0    0  501 -0.0000000000e+00 -0.0000000000e+00 -1.8484267119e+01 1.8484267295e+01 2.5500000000e-03 0.0000e+00 -1.0000e+00
  1000101  2    1    2    0    0 -8.3777247262e+01 +3.5352051075e+01 +5.3650401067e+02 5.5835015550e+02 1.2509975223e+02 5.2309e+01 0.0000e+00
 -1000101  2    1    2    0    0 +8.3777247262e+01 -3.5352051075e+01 +7.8326584041e+02 7.9838823000e+02 1.2509993753e+02 3.0512e+01 0.0000e+00
       11  1    3    3    0    0 -9.3448554077e-02 -1.1517370232e-02 +7.6274644320e-01 7.6853606279e-01 5.1100000000e-04 0.0000e+00 1.0000e+00
      255  1    3    3    0    0 -8.3683798707e+01 +3.5363568445e+01 +5.3574126423e+02 5.5758161944e+02 1.2500000000e+02 0.0000e+00 0.0000e+00
      -11  1    4    4    0    0 +7.1814655572e-02 -4.2168891635e-02 +1.4417409127e-01 1.6649921889e-01 5.1100000000e-04 0.0000e+00 -1.0000e+00
      255  1    4    4    0    0 +8.3705432606e+01 -3.5309882183e+01 +7.8312166632e+02 7.9822173078e+02 1.2500000000e+02 0.0000e+00 0.0000e+00
<mgrwt>
<rscale>  0 0.31455776E+03</rscale>
<asrwt>0</asrwt>
<pdfrwt beam="1">  1        2 0.20588526E+00 0.31455776E+03</pdfrwt>
<pdfrwt beam="2">  1       -2 0.28437333E-02 0.31455776E+03</pdfrwt>
<totfact> 0.76850095E+03</totfact>
</mgrwt>
</event>
<event>
 8      1 +1.6198320e-01 4.17596000e+02 7.81860800e-03 1.03785200e-01
       -2 -1    0    0    0  501 -0.0000000000e+00 +0.0000000000e+00 +1.8469995208e+01 1.8469995384e+01 2.5500000000e-03 0.0000e+00 -1.0000e+00
        2 -1    0    0  501    0 +0.0000000000e+00 -0.0000000000e+00 -2.3604013117e+03 2.3604013117e+03 2.5500000000e-03 0.0000e+00 1.0000e+00
  1000101  2    1    2    0    0 +1.4413264645e+02 -8.2951967512e+01 -1.2682032819e+03 1.2851633244e+03 1.2509979029e+02 1.4110e+01 0.0000e+00
 -1000101  2    1    2    0    0 -1.4413264645e+02 +8.2951967512e+01 -1.0737280346e+03 1.0937079827e+03 1.2510000154e+02 2.9264e+02 0.0000e+00
       11  1    3    3    0    0 +2.0515387864e-01 -1.2991271534e-02 -1.1007299808e+00 1.1197605274e+00 5.1100000000e-04 0.0000e+00 1.0000e+00
      255  1    3    3    0    0 +1.4392749257e+02 -8.2938976240e+01 -1.2671025519e+03 1.2840435639e+03 1.2500000000e+02 0.0000e+00 0.0000e+00
      -11  1    4    4    0    0 -8.1547988528e-02 +1.2884345141e-01 -4.9669094473e-01 5.1956988472e-01 5.1100000000e-04 0.0000e+00 -1.0000e+00
      255  1    4    4    0    0 -1.4405109846e+02 +8.2823124060e+01 -1.0732313437e+03 1.0931884128e+03 1.2500000000e+02 0.0000e+00 0.0000e+00
<mgrwt>
<rscale>  0 0.41759598E+03</rscale>
<asrwt>0</asrwt>
<pdfrwt beam="1">  1        2 0.36313842E+00 0.41759598E+03</pdfrwt>
<pdfrwt beam="2">  1       -2 0.28415396E-02 0.41759598E+03</pdfrwt>
<totfact> 0.21697575E+03</totfact>
</mgrwt>
</event>
<event>
 8      1 +1.6198320e-01 3.79503400e+02 7.81860800e-03 1.05111700e-01
       -4 -1    0    0    0  501 -0.0000000000e+00 +0.0000000000e+00 +1.3241437082e+02 1.3242046103e+02 1.2700000000e+00 0.0000e+00 -1.0000e+00
        4 -1    0    0  501    0 +0.0000000000e+00 -0.0000000000e+00 -2.7190314137e+02 2.7190610730e+02 1.2700000000e+00 0.0000e+00 1.0000e+00
  1000101  2    1    2    0    0 +8.6939234697e+01 +9.2486277919e+01 -3.4091816296e-01 1.7821972653e+02 1.2510001025e+02 3.4443e+01 0.0000e+00
 -1000101  2    1    2    0    0 -8.6939234697e+01 -9.2486277919e+01 -1.3914785239e+02 2.2610684180e+02 1.2510010772e+02 2.9050e+02 0.0000e+00
       11  1    3    3    0    0 +1.6516358267e-01 +3.5085130797e-02 +5.5293629293e-03 1.6894025696e-01 5.1100000000e-04 0.0000e+00 1.0000e+00
      255  1    3    3    0    0 +8.6774071114e+01 +9.2451192788e+01 -3.4644752589e-01 1.7805078627e+02 1.2500000000e+02 0.0000e+00 0.0000e+00
      -11  1    4    4    0    0 -1.3590997775e-01 -1.4350606448e-01 -7.0997747919e-02 2.1001536592e-01 5.1100000000e-04 0.0000e+00 -1.0000e+00
      255  1    4    4    0    0 -8.6803324719e+01 -9.2342771854e+01 -1.3907685464e+02 2.2589682643e+02 1.2500000000e+02 0.0000e+00 0.0000e+00
<mgrwt>
<rscale>  0 0.37950343E+03</rscale>
<asrwt>0</asrwt>
<pdfrwt beam="1">  1        4 0.41831949E-01 0.37950343E+03</pdfrwt>
<pdfrwt beam="2">  1       -4 0.20372138E-01 0.37950343E+03</pdfrwt>
<totfact> 0.23500405E+02</totfact>
</mgrwt>
</event>
<event>
 8      1 +1.6198320e-01 3.74338700e+02 7.81860800e-03 1.05304600e-01
       -2 -1    0    0    0  501 -0.0000000000e+00 +0.0000000000e+00 +4.6320028274e+01 4.6320028345e+01 2.5500000000e-03 0.0000e+00 -1.0000e+00
        2 -1    0    0  501    0 +0.0000000000e+00 -0.0000000000e+00 -7.5631157929e+02 7.5631157930e+02 2.5500000000e-03 0.0000e+00 1.0000e+00
  1000101  2    1    2    0    0 +2.4252744641e+01 -1.1071415782e+02 -1.8164470933e+02 2.4797298813e+02 1.2509988829e+02 5.7693e+01 0.0000e+00
 -1000101  2    1    2    0    0 -2.4252744641e+01 +1.1071415782e+02 -5.2834684168e+02 5.5465861951e+02 1.2509987496e+02 1.0775e+02 0.0000e+00
       11  1    3    3    0    0 -4.4628699666e-02 -9.1338999520e-02 -2.5019962552e-01 2.7006415423e-01 5.1100000000e-04 0.0000e+00 1.0000e+00
      255  1    3    3    0    0 +2.4297373340e+01 -1.1062281882e+02 -1.8139450971e+02 2.4770292398e+02 1.2500000000e+02 0.0000e+00 0.0000e+00
      -11  1    4    4    0    0 +3.6040218282e-02 +1.8967467667e-01 -5.8059615954e-01 6.1185581790e-01 5.1100000000e-04 0.0000e+00 -1.0000e+00
      255  1    4    4    0    0 -2.4288784859e+01 +1.1052448314e+02 -5.2776624552e+02 5.5404676369e+02 1.2500000000e+02 0.0000e+00 0.0000e+00
<mgrwt>
<rscale>  0 0.37433874E+03</rscale>
<asrwt>0</asrwt>
<pdfrwt beam="1">  1        2 0.11635562E+00 0.37433874E+03</pdfrwt>
<pdfrwt beam="2">  1       -2 0.71261588E-02 0.37433874E+03</pdfrwt>
<totfact> 0.43396084E+03</totfact>
</mgrwt>
</event>
<event>
 8      1 +1.6198320e-01 2.69558300e+02 7.81860800e-03 1.10153300e-01
       -1 -1    0    0    0  501 -0.0000000000e+00 +0.0000000000e+00 +1.9021334075e+02 1.9021334082e+02 5.0400000000e-03 0.0000e+00 1.0000e+00
        1 -1    0    0  501    0 +0.0000000000e+00 -0.0000000000e+00 -9.5500218859e+01 9.5500218992e+01 5.0400000000e-03 0.0000e+00 -1.0000e+00
  1000101  2    1    2    0    0 +2.7232222481e+01 +2.2810882601e+01 +9.8300993191e+00 1.3041691525e+02 1.2510000249e+02 3.4619e+01 0.0000e+00
 -1000101  2    1    2    0    0 -2.7232222481e+01 -2.2810882601e+01 +8.4883022574e+01 1.5529664457e+02 1.2509992001e+02 1.6806e+02 0.0000e+00
       11  1    3    3    0    0 +2.4135618965e-02 +6.7192965097e-02 +9.6378791089e-02 1.1994396673e-01 5.1100000000e-04 0.0000e+00 1.0000e+00
      255  1    3    3    0    0 +2.7208086862e+01 +2.2743689636e+01 +9.7337205280e+00 1.3029697128e+02 1.2500000000e+02 0.0000e+00 0.0000e+00
      -11  1    4    4    0    0 +5.9925436192e-02 -7.5454652504e-02 +5.2526246451e-02 1.0974393001e-01 5.1100000000e-04 0.0000e+00 -1.0000e+00
      255  1    4    4    0    0 -2.7292147917e+01 -2.2735427949e+01 +8.4830496327e+01 1.5518690064e+02 1.2500000000e+02 0.0000e+00 0.0000e+00
<mgrwt>
<rscale>  0 0.26955827E+03</rscale>
<asrwt>0</asrwt>
<pdfrwt beam="1">  1        1 0.14692341E-01 0.26955827E+03</pdfrwt>
<pdfrwt beam="2">  1       -1 0.29263591E-01 0.26955827E+03</pdfrwt>
<totfact> 0.40567346E+03</totfact>
</mgrwt>
</event>
<event>
 8      1 +1.6198320e-01 3.07975400e+02 7.81860800e-03 1.08132000e-01
       -1 -1    0    0    0  501 -0.0000000000e+00 +0.0000000000e+00 +1.6489111239e+01 1.6489112010e+01 5.0400000000e-03 0.0000e+00 -1.0000e+00
        1 -1    0    0  501    0 +0.0000000000e+00 -0.0000000000e+00 -1.4380528858e+03 1.4380528859e+03 5.0400000000e-03 0.0000e+00 1.0000e+00
  1000101  2    1    2    0    0 +1.7785310109e+01 -1.5087857319e+01 -1.1202958296e+03 1.1275001976e+03 1.2509991639e+02 9.6492e+01 0.0000e+00
 -1000101  2    1    2    0    0 -1.7785310109e+01 +1.5087857319e+01 -3.0126794504e+02 3.2704180030e+02 1.2509997497e+02 8.4644e+01 0.0000e+00
       11  1    3    3    0    0 +3.5561414695e-02 -7.9908170444e-02 -1.6202328478e+00 1.6225919611e+00 5.1100000000e-04 0.0000e+00 1.0000e+00
      255  1    3    3    0    0 +1.7749748695e+01 -1.5007949149e+01 -1.1186755967e+03 1.1258776056e+03 1.2500000000e+02 0.0000e+00 0.0000e+00
      -11  1    4    4    0    0 +6.2678446910e-02 +3.9230509197e-03 -4.7459456898e-02 7.8718734787e-02 5.1100000000e-04 0.0000e+00 -1.0000e+00
      255  1    4    4    0    0 -1.7847988556e+01 +1.5083934268e+01 -3.0122048559e+02 3.2696308156e+02 1.2500000000e+02 0.0000e+00 0.0000e+00
<mgrwt>
<rscale>  0 0.30797542E+03</rscale>
<asrwt>0</asrwt>
<pdfrwt beam="1">  1        1 0.22123881E+00 0.30797542E+03</pdfrwt>
<pdfrwt beam="2">  1       -1 0.25367875E-02 0.30797542E+03</pdfrwt>
<totfact> 0.38087135E+03</totfact>
</mgrwt>
</event>
<event>
 8      1 +1.6198320e-01 2.66531800e+02 7.81860800e-03 1.10328100e-01
        1 -1    0    0  501    0 +0.0000000000e+00 +0.0000000000e+00 +1.8303088739e+03 1.8303088739e+03 5.0400000000e-03 0.0000e+00 1.0000e+00
       -1 -1    0    0    0  501 -0.0000000000e+00 -0.0000000000e+00 -9.7031728605e+00 9.7031741694e+00 5.0400000000e-03 0.0000e+00 -1.0000e+00
  1000101  2    1    2    0    0 +4.1724921935e+01 +1.3541508102e+01 +8.1628642433e+02 8.2698117820e+02 1.2509996403e+02 3.7407e+01 0.0000e+00
 -1000101  2    1    2    0    0 -4.1724921935e+01 -1.3541508102e+01 +1.0043192767e+03 1.0130308698e+03 1.2509992885e+02 9.2096e+01 0.0000e+00
       11  1    3    3    0    0 +9.4909788621e-02 +1.6234054860e-02 +1.2800311870e+00 1.2836477372e+00 5.1100000000e-04 0.0000e+00 1.0000e+00
      255  1    3    3    0    0 +4.1630012146e+01 +1.3525274047e+01 +8.1500639314e+02 8.2569753046e+02 1.2500000000e+02 0.0000e+00 0.0000e+00
      -11  1    4    4    0    0 -8.3948801175e-02 -2.8709386709e-02 +2.7874220654e-01 2.9252198025e-01 5.1100000000e-04 0.0000e+00 -1.0000e+00
      255  1    4    4    0    0 -4.1640973134e+01 -1.3512798715e+01 +1.0040405345e+03 1.0127383479e+03 1.2500000000e+02 0.0000e+00 0.0000e+00
<mgrwt>
<rscale>  0 0.26653183E+03</rscale>
<asrwt>0</asrwt>
<pdfrwt beam="1">  1        1 0.28158605E+00 0.26653183E+03</pdfrwt>
<pdfrwt beam="2">  1       -1 0.14927956E-02 0.26653183E+03</pdfrwt>
<totfact> 0.45696691E+03</totfact>
</mgrwt>
</event>
<event>
 8      1 +1.6198320e-01 3.63110600e+02 7.81860800e-03 1.05735900e-01
       -2 -1    0    0    0  501 -0.0000000000e+00 +0.0000000000e+00 +5.7085926551e+01 5.7085926608e+01 2.5500000000e-03 0.0000e+00 -1.0000e+00
        2 -1    0    0  501    0 +0.0000000000e+00 -0.0000000000e+00 -5.7741602992e+02 5.7741602992e+02 2.5500000000e-03 0.0000e+00 1.0000e+00
  1000101  2    1    2    0    0 +7.6676527321e+01 -6.0081053100e+01 -4.1472193360e+02 4.4399698309e+02 1.2510002397e+02 1.0199e+02 0.0000e+00
 -1000101  2    1    2    0    0 -7.6676527321e+01 +6.0081053100e+01 -1.0560816976e+02 1.9050497344e+02 1.2510010632e+02 5.3230e+01 0.0000e+00
       11  1    3    3    0    0 +5.6159250591e-02 -9.7011797180e-02 -1.2576669176e-01 1.6847157653e-01 5.1100000000e-04 0.0000e+00 1.0000e+00
      255  1    3    3    0    0 +7.6620368070e+01 -5.9984041303e+01 -4.1459616691e+02 4.4382851151e+02 1.2500000000e+02 0.0000e+00 0.0000e+00
      -11  1    4    4    0    0 -8.4211884167e-02 +2.4896946694e-02 +2.7723513000e-02 9.2088835827e-02 5.1100000000e-04 0.0000e+00 -1.0000e+00
      255  1    4    4    0    0 -7.6592315437e+01 +6.0056156154e+01 -1.0563589328e+02 1.9041288461e+02 1.2500000000e+02 0.0000e+00 0.0000e+00
<mgrwt>
<rscale>  0 0.36311061E+03</rscale>
<asrwt>0</asrwt>
<pdfrwt beam="1">  1        2 0.88833231E-01 0.36311061E+03</pdfrwt>
<pdfrwt beam="2">  1       -2 0.87824507E-02 0.36311061E+03</pdfrwt>
<totfact> 0.43263520E+03</totfact>
</mgrwt>
</event>
<event>
 8      1 +1.6198320e-01 2.88922000e+02 7.81860800e-03 1.09091300e-01
        2 -1    0    0  501    0 +0.0000000000e+00 +0.0000000000e+00 +4.9693542016e+02 4.9693542017e+02 2.5500000000e-03 0.0000e+00 1.0000e+00
       -2 -1    0    0    0  501 -0.0000000000e+00 -0.0000000000e+00 -4.1995344516e+01 4.1995344594e+01 2.5500000000e-03 0.0000e+00 -1.0000e+00
  1000101  2    1    2    0    0 -5.5325587598e+01 -2.3181870834e+01 +1.5237821722e+02 2.0607632035e+02 1.2509999579e+02 1.3372e+02 0.0000e+00
 -1000101  2    1    2    0    0 +5.5325587598e+01 +2.3181870834e+01 +3.0256185843e+02 3.3285444441e+02 1.2510029262e+02 1.6347e+01 0.0000e+00
       11  1    3    3    0    0 -5.4306047678e-02 -1.0300645261e-01 +2.2412110100e-01 2.5256683299e-01 5.1100000000e-04 0.0000e+00 1.0000e+00
      255  1    3    3    0    0 -5.5271281550e+01 -2.3078864381e+01 +1.5215409612e+02 2.0582375351e+02 1.2500000000e+02 0.0000e+00 0.0000e+00
      -11  1    4    4    0    0 +8.4376257167e-03 +9.2877537653e-02 +1.0166072986e-01 1.3795867368e-01 5.1100000000e-04 0.0000e+00 -1.0000e+00
      255  1    4    4    0    0 +5.5317149972e+01 +2.3088993296e+01 +3.0246019770e+02 3.3271648574e+02 1.2500000000e+02 0.0000e+00 0.0000e+00
<mgrwt>
<rscale>  0 0.28892196E+03</rscale>
<asrwt>0</asrwt>
<pdfrwt beam="1">  1        2 0.76451603E-01 0.28892196E+03</pdfrwt>
<pdfrwt beam="2">  1       -2 0.64608222E-02 0.28892196E+03</pdfrwt>
<totfact> 0.82476715E+03</totfact>
</mgrwt>
</event>
<event>
 8      1 +1.6198320e-01 4.21412400e+02 7.81860800e-03 1.03660800e-01
       -2 -1    0    0    0  501 -0.0000000000e+00 +0.0000000000e+00 +6.8133914712e+02 6.8133914712e+02 2.5500000000e-03 0.0000e+00 -1.0000e+00
        2 -1    0    0  501    0 +0.0000000000e+00 -0.0000000000e+00 -6.5161531215e+01 6.5161531265e+01 2.5500000000e-03 0.0000e+00 1.0000e+00
  1000101  2    1    2    0    0 -6.0909023807e+01 +8.8516565413e+00 +5.8794508261e+02 6.0424968506e+02 1.2509996293e+02 5.1880e+01 0.0000e+00
 -1000101  2    1    2    0    0 +6.0909023807e+01 -8.8516565413e+00 +2.8232533297e+01 1.4225099333e+02 1.2509999266e+02 1.2332e+02 0.0000e+00
       11  1    3    3    0    0 +2.2817749191e-02 -6.0808000337e-02 +1.5016138353e-01 1.6360612705e-01 5.1100000000e-04 0.0000e+00 1.0000e+00
      255  1    3    3    0    0 -6.0931841557e+01 +8.9124645416e+00 +5.8779492122e+02 6.0408607893e+02 1.2500000000e+02 0.0000e+00 0.0000e+00
      -11  1    4    4    0    0 +7.3410564835e-02 +5.1617192332e-02 -5.4932413224e-02 1.0522013456e-01 5.1100000000e-04 0.0000e+00 -1.0000e+00
      255  1    4    4    0    0 +6.0835613243e+01 -8.9032737336e+00 +2.8287465710e+01 1.4214577320e+02 1.2500000000e+02 0.0000e+00 0.0000e+00
<mgrwt>
<rscale>  0 0.42141240E+03</rscale>
<asrwt>0</asrwt>
<pdfrwt beam="1">  1        2 0.10024851E-01 0.42141240E+03</pdfrwt>
<pdfrwt beam="2">  1       -2 0.10482141E+00 0.42141240E+03</pdfrwt>
<totfact> 0.49309832E+02</totfact>
</mgrwt>
</event>
<event>
 8      1 +1.6198320e-01 3.30109600e+02 7.81860800e-03 1.07108800e-01
       -2 -1    0    0    0  501 -0.0000000000e+00 +0.0000000000e+00 +2.1773753606e+01 2.1773753755e+01 2.5500000000e-03 0.0000e+00 -1.0000e+00
        2 -1    0    0  501    0 +0.0000000000e+00 -0.0000000000e+00 -1.2511893422e+03 1.2511893422e+03 2.5500000000e-03 0.0000e+00 1.0000e+00
  1000101  2    1    2    0    0 -1.9416743368e+01 -6.3813002383e+01 -9.4064026508e+02 9.5126401285e+02 1.2509997864e+02 1.5757e+01 0.0000e+00
 -1000101  2    1    2    0    0 +1.9416743368e+01 +6.3813002383e+01 -2.8877532353e+02 3.2169908312e+02 1.2509997365e+02 1.9914e+01 0.0000e+00
       11  1    3    3    0    0 -6.0539675866e-02 -1.2702567957e-01 -6.0538616362e-01 6.2152493421e-01 5.1100000000e-04 0.0000e+00 1.0000e+00
      255  1    3    3    0    0 -1.9356203692e+01 -6.3685976703e+01 -9.4003487892e+02 9.5064248792e+02 1.2500000000e+02 0.0000e+00 0.0000e+00
      -11  1    4    4    0    0 +5.4294286952e-02 +1.5693692844e-01 -3.5683308075e-01 3.9358249166e-01 5.1100000000e-04 0.0000e+00 -1.0000e+00
      255  1    4    4    0    0 +1.9362449081e+01 +6.3656065454e+01 -2.8841849045e+02 3.2130550063e+02 1.2500000000e+02 0.0000e+00 0.0000e+00
<mgrwt>
<rscale>  0 0.33010961E+03</rscale>
<asrwt>0</asrwt>
<pdfrwt beam="1">  1        2 0.19249061E+00 0.33010961E+03</pdfrwt>
<pdfrwt beam="2">  1       -2 0.33498092E-02 0.33010961E+03</pdfrwt>
<totfact> 0.67312569E+03</totfact>
</mgrwt>
</event>
<event>
 8      1 +1.6198320e-01 3.40686400e+02 7.81860800e-03 1.06650400e-01
        2 -1    0    0  501    0 +0.0000000000e+00 +0.0000000000e+00 +5.1728218050e+02 5.1728218050e+02 2.5500000000e-03 0.0000e+00 1.0000e+00
       -2 -1    0    0    0  501 -0.0000000000e+00 -0.0000000000e+00 -5.6094735944e+01 5.6094736002e+01 2.5500000000e-03 0.0000e+00 -1.0000e+00
  1000101  2    1    2    0    0 -1.1244406969e+02 -2.4257673392e+01 +2.1106140881e+02 2.7097791384e+02 1.2509999189e+02 8.1179e+01 0.0000e+00
 -1000101  2    1    2    0    0 +1.1244406969e+02 +2.4257673392e+01 +2.5012603574e+02 3.0239900267e+02 1.2510003810e+02 2.2092e+01 0.0000e+00
       11  1    3    3    0    0 -1.3423948506e-01 -1.3845483231e-02 +3.5375604763e-01 3.7862321523e-01 5.1100000000e-04 0.0000e+00 1.0000e+00
      255  1    3    3    0    0 -1.1230983020e+02 -2.4243827909e+01 +2.1070765277e+02 2.7059929062e+02 1.2500000000e+02 0.0000e+00 0.0000e+00
      -11  1    4    4    0    0 -3.6380718018e-02 +1.9582214947e-02 +1.3417317765e-01 1.4039131921e-01 5.1100000000e-04 0.0000e+00 -1.0000e+00
      255  1    4    4    0    0 +1.1248045041e+02 +2.4238091177e+01 +2.4999186256e+02 3.0225861135e+02 1.2500000000e+02 0.0000e+00 0.0000e+00
<mgrwt>
<rscale>  0 0.34068641E+03</rscale>
<asrwt>0</asrwt>
<pdfrwt beam="1">  1        2 0.79581879E-01 0.34068641E+03</pdfrwt>
<pdfrwt beam="2">  1       -2 0.86299589E-02 0.34068641E+03</pdfrwt>
<totfact> 0.50405945E+03</totfact>
</mgrwt>
</event>
<event>
 8      1 +1.6198320e-01 2.72001800e+02 7.81860800e-03 1.10013900e-01
       -1 -1    0    0    0  501 -0.0000000000e+00 +0.0000000000e+00 +1.8713526786e+02 1.8713526793e+02 5.0400000000e-03 0.0000e+00 1.0000e+00
        1 -1    0    0  501    0 +0.0000000000e+00 -0.0000000000e+00 -9.8838870619e+01 9.8838870748e+01 5.0400000000e-03 0.0000e+00 -1.0000e+00
  1000101  2    1    2    0    0 -2.9889650303e+01 -8.1544446248e+00 -1.5147338332e+00 1.2888832519e+02 1.2510003913e+02 2.7732e+01 0.0000e+00
 -1000101  2    1    2    0    0 +2.9889650303e+01 +8.1544446248e+00 +8.9811131077e+01 1.5708581348e+02 1.2510006943e+02 1.4004e+02 0.0000e+00
       11  1    3    3    0    0 +9.0715085365e-04 -5.4526765991e-02 +8.3011811317e-02 9.9323778986e-02 5.1100000000e-04 0.0000e+00 1.0000e+00
      255  1    3    3    0    0 -2.9890557453e+01 -8.0999178588e+00 -1.5977456445e+00 1.2878900141e+02 1.2500000000e+02 0.0000e+00 0.0000e+00
      -11  1    4    4    0    0 -3.0835060179e-02 +4.8139935230e-02 -2.4589434458e-02 6.2234682523e-02 5.1100000000e-04 0.0000e+00 -1.0000e+00
      255  1    4    4    0    0 +2.9920485363e+01 +8.1063046896e+00 +8.9835720512e+01 1.5702357880e+02 1.2500000000e+02 0.0000e+00 0.0000e+00
<mgrwt>
<rscale>  0 0.27200175E+03</rscale>
<asrwt>0</asrwt>
<pdfrwt beam="1">  1        1 0.15205980E-01 0.27200175E+03</pdfrwt>
<pdfrwt beam="2">  1       -1 0.28790041E-01 0.27200175E+03</pdfrwt>
<totfact> 0.39876418E+03</totfact>
</mgrwt>
</event>
<event>
 8      1 +1.6198320e-01 3.01769600e+02 7.81860800e-03 1.08435900e-01
        2 -1    0    0  501    0 +0.0000000000e+00 +0.0000000000e+00 +8.7622167975e+01 8.7622168012e+01 2.5500000000e-03 0.0000e+00 1.0000e+00
       -2 -1    0    0    0  501 -0.0000000000e+00 -0.0000000000e+00 -2.5982267014e+02 2.5982267016e+02 2.5500000000e-03 0.0000e+00 -1.0000e+00
  1000101  2    1    2    0    0 -4.9100786657e+01 +1.9866200952e+01 -1.6169336765e+02 2.1118784734e+02 1.2509999414e+02 1.6819e+01 0.0000e+00
 -1000101  2    1    2    0    0 +4.9100786657e+01 -1.9866200952e+01 -1.0507134519e+01 1.3625699083e+02 1.2510001792e+02 3.7601e+01 0.0000e+00
       11  1    3    3    0    0 +6.6761128663e-03 +6.7500486037e-02 -2.3159670898e-01 2.4132588512e-01 5.1100000000e-04 0.0000e+00 1.0000e+00
      255  1    3    3    0    0 -4.9107462770e+01 +1.9798700466e+01 -1.6146177094e+02 2.1094652146e+02 1.2500000000e+02 0.0000e+00 0.0000e+00
      -11  1    4    4    0    0 +7.5219371238e-02 +4.8366482825e-02 -7.6603614132e-02 1.1775247467e-01 5.1100000000e-04 0.0000e+00 -1.0000e+00
      255  1    4    4    0    0 +4.9025567285e+01 -1.9914567435e+01 -1.0430530905e+01 1.3613923835e+02 1.2500000000e+02 0.0000e+00 0.0000e+00
<mgrwt>
<rscale>  0 0.30176962E+03</rscale>
<asrwt>0</asrwt>
<pdfrwt beam="1">  1        2 0.13480334E-01 0.30176962E+03</pdfrwt>
<pdfrwt beam="2">  1       -2 0.39972718E-01 0.30176962E+03</pdfrwt>
<totfact> 0.26443833E+03</totfact>
</mgrwt>
</event>
<event>
 8      1 +1.6198320e-01 2.83972300e+02 7.81860800e-03 1.09353900e-01
       -2 -1    0    0    0  501 -0.0000000000e+00 +0.0000000000e+00 +2.1285863168e+01 2.1285863321e+01 2.5500000000e-03 0.0000e+00 -1.0000e+00
        2 -1    0    0  501    0 +0.0000000000e+00 -0.0000000000e+00 -9.4711045679e+02 9.4711045679e+02 2.5500000000e-03 0.0000e+00 1.0000e+00
  1000101  2    1    2    0    0 +3.6537942264e+01 -1.2569299564e+01 -2.7559924540e+02 3.0511957893e+02 1.2509997949e+02 1.0422e+02 0.0000e+00
 -1000101  2    1    2    0    0 -3.6537942264e+01 +1.2569299564e+01 -6.5022534823e+02 6.6327674118e+02 1.2510005356e+02 4.4452e+01 0.0000e+00
       11  1    3    3    0    0 +1.2715482304e-01 -4.6464030094e-02 -2.7617159601e-01 3.0756831222e-01 5.1100000000e-04 0.0000e+00 1.0000e+00
      255  1    3    3    0    0 +3.6410787441e+01 -1.2522835534e+01 -2.7532307380e+02 3.0481201062e+02 1.2500000000e+02 0.0000e+00 0.0000e+00
      -11  1    4    4    0    0 -2.1177877972e-02 +1.0618388862e-01 -4.1628444974e-01 4.3013547277e-01 5.1100000000e-04 0.0000e+00 -1.0000e+00
      255  1    4    4    0    0 -3.6516764386e+01 +1.2463115676e+01 -6.4980906378e+02 6.6284660571e+02 1.2500000000e+02 0.0000e+00 0.0000e+00
<mgrwt>
<rscale>  0 0.28397228E+03</rscale>
<asrwt>0</asrwt>
<pdfrwt beam="1">  1        2 0.14570927E+00 0.28397228E+03</pdfrwt>
<pdfrwt beam="2">  1       -2 0.32747489E-02 0.28397228E+03</pdfrwt>
<totfact> 0.10511488E+04</totfact>
</mgrwt>
</event>
<event>
 8      1 +1.6198320e-01 3.00453800e+02 7.81860800e-03 1.08501400e-01
        2 -1    0    0  501    0 +0.0000000000e+00 +0.0000000000e+00 +8.3095749476e+02 8.3095749476e+02 2.5500000000e-03 0.0000e+00 1.0000e+00
       -2 -1    0    0    0  501 -0.0000000000e+00 -0.0000000000e+00 -2.7159185191e+01 2.7159185311e+01 2.5500000000e-03 0.0000e+00 -1.0000e+00
  1000101  2    1    2    0    0 -6.2477073307e+01 +1.6317941724e+01 +2.5216739295e+02 2.8880454097e+02 1.2509999562e+02 1.5980e+01 0.0000e+00
 -1000101  2    1    2    0    0 +6.2477073307e+01 -1.6317941724e+01 +5.5163091661e+02 5.6931213911e+02 1.2509989471e+02 1.7662e+00 0.0000e+00
       11  1    3    3    0    0 +5.2448284136e-02 +2.4341292347e-02 +4.7631616805e-02 7.4915639643e-02 5.1100000000e-04 0.0000e+00 1.0000e+00
      255  1    3    3    0    0 -6.2529521591e+01 +1.6293600432e+01 +2.5211976134e+02 2.8872962533e+02 1.2500000000e+02 0.0000e+00 0.0000e+00
      -11  1    4    4    0    0 -1.6807730070e-02 +3.7990682008e-02 +3.9659349509e-02 5.7436197946e-02 5.1100000000e-04 0.0000e+00 -1.0000e+00
      255  1    4    4    0    0 +6.2493881037e+01 -1.6355932406e+01 +5.5159125726e+02 5.6925470291e+02 1.2500000000e+02 0.0000e+00 0.0000e+00
<mgrwt>
<rscale>  0 0.30045385E+03</rscale>
<asrwt>0</asrwt>
<pdfrwt beam="1">  1        2 0.12783962E+00 0.30045385E+03</pdfrwt>
<pdfrwt beam="2">  1       -2 0.41783361E-02 0.30045385E+03</pdfrwt>
<totfact> 0.86934433E+03</totfact>
</mgrwt>
</event>
<event>
 8      1 +1.6198320e-01 3.11345300e+02 7.81860800e-03 1.07970300e-01
       -2 -1    0    0    0  501 -0.0000000000e+00 +0.0000000000e+00 +8.5350803542e+01 8.5350803581e+01 2.5500000000e-03 0.0000e+00 -1.0000e+00
        2 -1    0    0  501    0 +0.0000000000e+00 -0.0000000000e+00 -2.8393366987e+02 2.8393366988e+02 2.5500000000e-03 0.0000e+00 1.0000e+00
  1000101  2    1    2    0    0 +5.7337947239e+01 -7.2121763530e+01 -1.1083679095e+02 1.9085072923e+02 1.2510003059e+02 1.6905e+00 0.0000e+00
 -1000101  2    1    2    0    0 -5.7337947239e+01 +7.2121763530e+01 -8.7746075377e+01 1.7843374422e+02 1.2510011337e+02 7.6887e+00 0.0000e+00
       11  1    3    3    0    0 -3.6783290727e-02 -1.0357056259e-01 -4.0428431000e-02 1.1710931247e-01 5.1100000000e-04 0.0000e+00 1.0000e+00
      255  1    3    3    0    0 +5.7374730530e+01 -7.2018192968e+01 -1.1079636252e+02 1.9073361992e+02 1.2500000000e+02 0.0000e+00 0.0000e+00
      -11  1    4    4    0    0 -1.3235619294e-01 +1.4558275283e-01 -1.2258497598e-01 2.3181854367e-01 5.1100000000e-04 0.0000e+00 -1.0000e+00
      255  1    4    4    0    0 -5.7205591046e+01 +7.1976180777e+01 -8.7623490401e+01 1.7820192568e+02 1.2500000000e+02 0.0000e+00 0.0000e+00
<mgrwt>
<rscale>  0 0.31134525E+03</rscale>
<asrwt>0</asrwt>
<pdfrwt beam="1">  1        2 0.43682103E-01 0.31134525E+03</pdfrwt>
<pdfrwt beam="2">  1       -2 0.13130893E-01 0.31134525E+03</pdfrwt>
<totfact> 0.49483481E+03</totfact>
</mgrwt>
</event>
<event>
 8      1 +1.6198320e-01 4.71374300e+02 7.81860800e-03 1.02153300e-01
        1 -1    0    0  501    0 +0.0000000000e+00 +0.0000000000e+00 +1.9938730449e+02 1.9938730455e+02 5.0400000000e-03 0.0000e+00 1.0000e+00
       -1 -1    0    0    0  501 -0.0000000000e+00 -0.0000000000e+00 -2.7859565550e+02 2.7859565555e+02 5.0400000000e-03 0.0000e+00 -1.0000e+00
  1000101  2    1    2    0    0 -1.6236004618e+02 +1.1608188405e+02 -3.1576747239e+01 2.3766123663e+02 1.2509989619e+02 1.4508e+02 0.0000e+00
 -1000101  2    1    2    0    0 +1.6236004618e+02 -1.1608188405e+02 -4.7631603778e+01 2.4032172347e+02 1.2509985088e+02 1.0065e+02 0.0000e+00
       11  1    3    3    0    0 -3.5245992747e-04 +2.6657005660e-02 +5.2465502066e-02 5.8852444362e-02 5.1100000000e-04 0.0000e+00 1.0000e+00
      255  1    3    3    0    0 -1.6235969372e+02 +1.1605522705e+02 -3.1629212741e+01 2.3760238418e+02 1.2500000000e+02 0.0000e+00 0.0000e+00
      -11  1    4    4    0    0 +1.1270439792e-01 -1.7704525585e-01 -1.0399964366e-01 2.3422956887e-01 5.1100000000e-04 0.0000e+00 -1.0000e+00
      255  1    4    4    0    0 +1.6224734179e+02 -1.1590483880e+02 -4.7527604134e+01 2.4008749390e+02 1.2500000000e+02 0.0000e+00 0.0000e+00
<mgrwt>
<rscale>  0 0.47137432E+03</rscale>
<asrwt>0</asrwt>
<pdfrwt beam="1">  1        1 0.30674970E-01 0.47137432E+03</pdfrwt>
<pdfrwt beam="2">  1       -1 0.42860870E-01 0.47137432E+03</pdfrwt>
<totfact> 0.80507085E+02</totfact>
</mgrwt>
</event>
<event>
 8      1 +1.6198320e-01 3.04757900e+02 7.81860800e-03 1.08288600e-01
       -2 -1    0    0    0  501 -0.0000000000e+00 +0.0000000000e+00 +8.8989343883e+01 8.8989343919e+01 2.5500000000e-03 0.0000e+00 -1.0000e+00
        2 -1    0    0  501    0 +0.0000000000e+00 -0.0000000000e+00 -2.6092266629e+02 2.6092266630e+02 2.5500000000e-03 0.0000e+00 1.0000e+00
  1000101  2    1    2    0    0 +8.6738454801e+00 +8.6166916376e+01 -9.5529472032e+01 1.7965478233e+02 1.2509991093e+02 2.1180e+02 0.0000e+00
 -1000101  2    1    2    0    0 -8.6738454801e+00 -8.6166916376e+01 -7.6403850375e+01 1.7025722789e+02 1.2509996892e+02 2.1632e+01 0.0000e+00
       11  1    3    3    0    0 -1.6283323952e-02 +9.0436601366e-02 -1.9568385551e-01 2.1618593371e-01 5.1100000000e-04 0.0000e+00 1.0000e+00
      255  1    3    3    0    0 +8.6901288041e+00 +8.6076479774e+01 -9.5333788176e+01 1.7943859640e+02 1.2500000000e+02 0.0000e+00 0.0000e+00
      -11  1    4    4    0    0 +7.7634979441e-02 -3.1839585354e-02 +3.5573307470e-03 8.3987290414e-02 5.1100000000e-04 0.0000e+00 -1.0000e+00
      255  1    4    4    0    0 -8.7514804596e+00 -8.6135076790e+01 -7.6407407705e+01 1.7017324060e+02 1.2500000000e+02 0.0000e+00 0.0000e+00
<mgrwt>
<rscale>  0 0.30475785E+03</rscale>
<asrwt>0</asrwt>
<pdfrwt beam="1">  1        2 0.40141948E-01 0.30475785E+03</pdfrwt>
<pdfrwt beam="2">  1       -2 0.13690668E-01 0.30475785E+03</pdfrwt>
<totfact> 0.50601965E+03</totfact>
</mgrwt>
</event>
<event>
 8      1 +1.6198320e-01 3.07705800e+02 7.81860800e-03 1.08145100e-01
       -2 -1    0    0    0  501 -0.0000000000e+00 +0.0000000000e+00 +1.1405053076e+02 1.1405053078e+02 2.5500000000e-03 0.0000e+00 -1.0000e+00
        2 -1    0    0  501    0 +0.0000000000e+00 -0.0000000000e+00 -2.0754589333e+02 2.0754589334e+02 2.5500000000e-03 0.0000e+00 1.0000e+00
  1000101  2    1    2    0    0 -7.6102868894e+01 -3.4459531501e+01 -1.3017261056e+01 1.5099195736e+02 1.2510002453e+02 3.8071e+01 0.0000e+00
 -1000101  2    1    2    0    0 +7.6102868894e+01 +3.4459531501e+01 -8.0478101516e+01 1.7060446677e+02 1.2510017303e+02 4.9207e+02 0.0000e+00
       11  1    3    3    0    0 -4.3223188110e-02 +3.4303441490e-02 +7.1856201946e-02 9.0601020786e-02 5.1100000000e-04 0.0000e+00 1.0000e+00
      255  1    3    3    0    0 -7.6059645706e+01 -3.4493834942e+01 -1.3089117258e+01 1.5090135634e+02 1.2500000000e+02 0.0000e+00 0.0000e+00
      -11  1    4    4    0    0 -3.8499942508e-02 -2.7038361635e-02 +6.8722786857e-03 4.7547953777e-02 5.1100000000e-04 0.0000e+00 -1.0000e+00
      255  1    4    4    0    0 +7.6141368837e+01 +3.4486569863e+01 -8.0484973795e+01 1.7055691882e+02 1.2500000000e+02 0.0000e+00 0.0000e+00
<mgrwt>
<rscale>  0 0.30770583E+03</rscale>
<asrwt>0</asrwt>
<pdfrwt beam="1">  1        2 0.31930138E-01 0.30770583E+03</pdfrwt>
<pdfrwt beam="2">  1       -2 0.17546235E-01 0.30770583E+03</pdfrwt>
<totfact> 0.42985389E+03</totfact>
</mgrwt>
</event>
<event>
 8      1 +1.6198320e-01 4.15593000e+02 7.81860800e-03 1.03851000e-01
       -2 -1    0    0    0  501 -0.0000000000e+00 +0.0000000000e+00 +3.3860466686e+02 3.3860466686e+02 2.5500000000e-03 0.0000e+00 -1.0000e+00
        2 -1    0    0  501    0 +0.0000000000e+00 -0.0000000000e+00 -1.2752155872e+02 1.2752155875e+02 2.5500000000e-03 0.0000e+00 1.0000e+00
  1000101  2    1    2    0    0 +8.1112437661e+01 -8.8963460743e+01 -2.2515100918e+01 1.7507330565e+02 1.2509999078e+02 1.7807e+01 0.0000e+00
 -1000101  2    1    2    0    0 -8.1112437661e+01 +8.8963460743e+01 +2.3359820905e+02 2.9105291996e+02 1.2509977641e+02 7.7405e+01 0.0000e+00
       11  1    3    3    0    0 +5.6519413633e-02 +9.0618826781e-03 -8.7066280602e-02 1.0419865726e-01 5.1100000000e-04 0.0000e+00 1.0000e+00
      255  1    3    3    0    0 +8.1055918247e+01 -8.8972522626e+01 -2.2428034637e+01 1.7496910700e+02 1.2500000000e+02 0.0000e+00 0.0000e+00
      -11  1    4    4    0    0 -1.3651636426e-01 +1.6689347572e-02 +1.2138900226e-01 1.8344155207e-01 5.1100000000e-04 0.0000e+00 -1.0000e+00
      255  1    4    4    0    0 -8.0975921296e+01 +8.8946771395e+01 +2.3347682005e+02 2.9086947841e+02 1.2500000000e+02 0.0000e+00 0.0000e+00
<mgrwt>
<rscale>  0 0.41559305E+03</rscale>
<asrwt>0</asrwt>
<pdfrwt beam="1">  1        2 0.19618701E-01 0.41559305E+03</pdfrwt>
<pdfrwt beam="2">  1       -2 0.52093025E-01 0.41559305E+03</pdfrwt>
<totfact> 0.10113300E+03</totfact>
</mgrwt>
</event>
<event>
 8      1 +1.6198320e-01 3.70615600e+02 7.81860800e-03 1.05445800e-01
       -2 -1    0    0    0  501 -0.0000000000e+00 +0.0000000000e+00 +8.8896332043e+01 8.8896332080e+01 2.5500000000e-03 0.0000e+00 -1.0000e+00
        2 -1    0    0  501    0 +0.0000000000e+00 -0.0000000000e+00 -3.8628125266e+02 3.8628125266e+02 2.5500000000e-03 0.0000e+00 1.0000e+00
  1000101  2    1    2    0    0 +1.8275425038e+00 +1.2463657224e+02 -2.2066709058e+02 2.8263339636e+02 1.2510018715e+02 1.3900e+02 0.0000e+00
 -1000101  2    1    2    0    0 -1.8275425038e+00 -1.2463657224e+02 -7.6717830030e+01 1.9254418838e+02 1.2510005589e+02 1.4757e+02 0.0000e+00
       11  1    3    3    0    0 -2.1545532884e-02 -2.4099286032e-02 -1.3575656260e-01 1.3955318336e-01 5.1100000000e-04 0.0000e+00 1.0000e+00
      255  1    3    3    0    0 +1.8490880367e+00 +1.2466067152e+02 -2.2053133402e+02 2.8249384318e+02 1.2500000000e+02 0.0000e+00 0.0000e+00
      -11  1    4    4    0    0 -1.1472584178e-02 -2.3676537615e-01 -1.2745284518e-01 2.6913556509e-01 5.1100000000e-04 0.0000e+00 -1.0000e+00
      255  1    4    4    0    0 -1.8160699196e+00 -1.2439980686e+02 -7.6590377185e+01 1.9227505281e+02 1.2500000000e+02 0.0000e+00 0.0000e+00
<mgrwt>
<rscale>  0 0.37061563E+03</rscale>
<asrwt>0</asrwt>
<pdfrwt beam="1">  1        2 0.59427884E-01 0.37061563E+03</pdfrwt>
<pdfrwt beam="2">  1       -2 0.13676359E-01 0.37061563E+03</pdfrwt>
<totfact> 0.33260814E+03</totfact>
</mgrwt>
</event>
<event>
 8      1 +1.6198320e-01 4.01139700e+02 7.81860800e-03 1.04338600e-01
        2 -1    0    0  501    0 +0.0000000000e+00 +0.0000000000e+00 +4.6511761576e+02 4.6511761577e+02 2.5500000000e-03 0.0000e+00 1.0000e+00
       -2 -1    0    0    0  501 -0.0000000000e+00 -0.0000000000e+00 -8.6490504616e+01 8.6490504654e+01 2.5500000000e-03 0.0000e+00 -1.0000e+00
  1000101  2    1    2    0    0 +5.2048839902e+01 +1.1272438619e+02 +5.7688460476e+01 1.8545582978e+02 1.2510010932e+02 9.8048e+00 0.0000e+00
 -1000101  2    1    2    0    0 -5.2048839902e+01 -1.1272438619e+02 +3.2093865067e+02 3.6615229064e+02 1.2510001387e+02 6.0534e+00 0.0000e+00
       11  1    3    3    0    0 +1.4387460029e-01 +1.6451279031e-01 +6.2362506572e-02 2.2727450832e-01 5.1100000000e-04 0.0000e+00 1.0000e+00
      255  1    3    3    0    0 +5.1904965302e+01 +1.1255987340e+02 +5.7626097970e+01 1.8522855528e+02 1.2500000000e+02 0.0000e+00 0.0000e+00
      -11  1    4    4    0    0 +5.1695214043e-02 -8.6388762965e-02 +1.0518343981e-01 1.4559955581e-01 5.1100000000e-04 0.0000e+00 -1.0000e+00
      255  1    4    4    0    0 -5.2100535116e+01 -1.1263799742e+02 +3.2083346723e+02 3.6600669108e+02 1.2500000000e+02 0.0000e+00 0.0000e+00
<mgrwt>
<rscale>  0 0.40113966E+03</rscale>
<asrwt>0</asrwt>
<pdfrwt beam="1">  1        2 0.71556556E-01 0.40113966E+03</pdfrwt>
<pdfrwt beam="2">  1       -2 0.13306232E-01 0.40113966E+03</pdfrwt>
<totfact> 0.28361360E+03</totfact>
</mgrwt>
</event>
<event>
 8      1 +1.6198320e-01 2.64492300e+02 7.81860800e-03 1.10447400e-01
       -2 -1    0    0    0  501 -0.0000000000e+00 +0.0000000000e+00 +3.4736634821e+02 3.4736634822e+02 2.5500000000e-03 0.0000e+00 -1.0000e+00
        2 -1    0    0  501    0 +0.0000000000e+00 -0.0000000000e+00 -5.0347555610e+01 5.0347555674e+01 2.5500000000e-03 0.0000e+00 1.0000e+00
  1000101  2    1    2    0    0 +3.7940365842e+01 -1.7619516901e+01 +1.6270941180e+02 2.0946159444e+02 1.2509951287e+02 1.9937e+01 0.0000e+00
 -1000101  2    1    2    0    0 -3.7940365842e+01 +1.7619516901e+01 +1.3430938080e+02 1.8825230946e+02 1.2509997406e+02 9.8401e+01 0.0000e+00
       11  1    3    3    0    0 -3.9123667534e-02 -3.5943828146e-02 -2.7603571069e-03 5.3202451406e-02 5.1100000000e-04 0.0000e+00 1.0000e+00
      255  1    3    3    0    0 +3.7979489509e+01 -1.7583573073e+01 +1.6271217216e+02 2.0940839198e+02 1.2500000000e+02 0.0000e+00 0.0000e+00
      -11  1    4    4    0    0 +6.7250195438e-03 +9.0047515369e-02 +1.8288026348e-01 2.0395889979e-01 5.1100000000e-04 0.0000e+00 -1.0000e+00
      255  1    4    4    0    0 -3.7947090861e+01 +1.7529469385e+01 +1.3412650054e+02 1.8804835056e+02 1.2500000000e+02 0.0000e+00 0.0000e+00
<mgrwt>
<rscale>  0 0.26449232E+03</rscale>
<asrwt>0</asrwt>
<pdfrwt beam="1">  1        2 0.77457775E-02 0.26449232E+03</pdfrwt>
<pdfrwt beam="2">  1       -2 0.53440979E-01 0.26449232E+03</pdfrwt>
<totfact> 0.29596030E+03</totfact>
</mgrwt>
</event>
<event>
 8      1 +1.6198320e-01 3.69226300e+02 7.81860800e-03 1.05498900e-01
       -2 -1    0    0    0  501 -0.0000000000e+00 +0.0000000000e+00 +2.2261998161e+02 2.2261998162e+02 2.5500000000e-03 0.0000e+00 -1.0000e+00
        2 -1    0    0  501    0 +0.0000000000e+00 -0.0000000000e+00 -1.5309502293e+02 1.5309502295e+02 2.5500000000e-03 0.0000e+00 1.0000e+00
  1000101  2    1    2    0    0 -6.7424691409e+01 +2.4181228942e+01 -8.2595093791e+01 1.6614080410e+02 1.2509994573e+02 4.9361e+01 0.0000e+00
 -1000101  2    1    2    0    0 +6.7424691409e+01 -2.4181228942e+01 +1.5212005247e+02 2.0957420048e+02 1.2510001718e+02 5.9463e+01 0.0000e+00
       11  1    3    3    0    0 +3.6109969217e-02 +7.3723149979e-02 -4.2815746566e-02 9.2587698941e-02 5.1100000000e-04 0.0000e+00 1.0000e+00
      255  1    3    3    0    0 -6.7460801378e+01 +2.4107505792e+01 -8.2552278044e+01 1.6604821640e+02 1.2500000000e+02 0.0000e+00 0.0000e+00
      -11  1    4    4    0    0 +7.3968712210e-02 +4.5012444335e-02 +1.2725893562e-02 8.7519712178e-02 5.1100000000e-04 0.0000e+00 -1.0000e+00
      255  1    4    4    0    0 +6.7350722697e+01 -2.4226241387e+01 +1.5210732658e+02 2.0948668077e+02 1.2500000000e+02 0.0000e+00 0.0000e+00
<mgrwt>
<rscale>  0 0.36922628E+03</rscale>
<asrwt>0</asrwt>
<pdfrwt beam="1">  1        2 0.23553081E-01 0.36922628E+03</pdfrwt>
<pdfrwt beam="2">  1       -2 0.34249228E-01 0.36922628E+03</pdfrwt>
<totfact> 0.18522701E+03</totfact>
</mgrwt>
</event>
<event>
 8      1 +1.6198320e-01 3.56068500e+02 7.81860800e-03 1.06015100e-01
       -2 -1    0    0    0  501 -0.0000000000e+00 +0.0000000000e+00 +4.6264744161e+01 4.6264744231e+01 2.5500000000e-03 0.0000e+00 -1.0000e+00
        2 -1    0    0  501    0 +0.0000000000e+00 -0.0000000000e+00 -6.8510469331e+02 6.8510469332e+02 2.5500000000e-03 0.0000e+00 1.0000e+00
  1000101  2    1    2    0    0 -7.5336815439e+01 +1.4549315979e+01 -1.1239356960e+02 1.8485033291e+02 1.2510001092e+02 3.0454e+02 0.0000e+00
 -1000101  2    1    2    0    0 +7.5336815439e+01 -1.4549315979e+01 -5.2644637956e+02 5.4651910464e+02 1.2510005130e+02 6.7368e+01 0.0000e+00
       11  1    3    3    0    0 +3.5138797971e-03 +6.8585916863e-02 +4.5916288864e-03 6.8831094141e-02 5.1100000000e-04 0.0000e+00 1.0000e+00
      255  1    3    3    0    0 -7.5340329319e+01 +1.4480730063e+01 -1.1239816122e+02 1.8478150181e+02 1.2500000000e+02 0.0000e+00 0.0000e+00
      -11  1    4    4    0    0 +8.9002207711e-02 -1.0712806477e-01 -4.1346284549e-01 4.3629072986e-01 5.1100000000e-04 0.0000e+00 -1.0000e+00
      255  1    4    4    0    0 +7.5247813231e+01 -1.4442187915e+01 -5.2603291671e+02 5.4608281391e+02 1.2500000000e+02 0.0000e+00 0.0000e+00
<mgrwt>
<rscale>  0 0.35606850E+03</rscale>
<asrwt>0</asrwt>
<pdfrwt beam="1">  1        2 0.10540071E+00 0.35606850E+03</pdfrwt>
<pdfrwt beam="2">  1       -2 0.71176535E-02 0.35606850E+03</pdfrwt>
<totfact> 0.49107518E+03</totfact>
</mgrwt>
</event>
<event>
 8      1 +1.6198320e-01 2.78244300e+02 7.81860800e-03 1.09665200e-01
        2 -1    0    0  501    0 +0.0000000000e+00 +0.0000000000e+00 +5.2417016112e+02 5.2417016113e+02 2.5500000000e-03 0.0000e+00 1.0000e+00
       -2 -1    0    0    0  501 -0.0000000000e+00 -0.0000000000e+00 -3.6924976217e+01 3.6924976305e+01 2.5500000000e-03 0.0000e+00 -1.0000e+00
  1000101  2    1    2    0    0 -3.2945612906e+01 +5.1162371523e+01 +2.4644294192e+02 2.8299675250e+02 1.2510010645e+02 2.6852e+01 0.0000e+00
 -1000101  2    1    2    0    0 +3.2945612906e+01 -5.1162371523e+01 +2.4080224299e+02 2.7809838493e+02 1.2509991929e+02 7.3300e+01 0.0000e+00
       11  1    3    3    0    0 -5.9344903792e-02 +3.5320698230e-02 +3.9951240003e-01 4.0543777356e-01 5.1100000000e-04 0.0000e+00 1.0000e+00
      255  1    3    3    0    0 -3.2886268003e+01 +5.1127050825e+01 +2.4604342952e+02 2.8259131473e+02 1.2500000000e+02 0.0000e+00 0.0000e+00
      -11  1    4    4    0    0 +6.6130482838e-02 +4.4726802926e-02 +7.5347229362e-02 1.0977792927e-01 5.1100000000e-04 0.0000e+00 -1.0000e+00
      255  1    4    4    0    0 +3.2879482423e+01 -5.1207098326e+01 +2.4072689576e+02 2.7798860700e+02 1.2500000000e+02 0.0000e+00 0.0000e+00
<mgrwt>
<rscale>  0 0.27824429E+03</rscale>
<asrwt>0</asrwt>
<pdfrwt beam="1">  1        2 0.80641570E-01 0.27824429E+03</pdfrwt>
<pdfrwt beam="2">  1       -2 0.56807651E-02 0.27824429E+03</pdfrwt>
<totfact> 0.94529738E+03</totfact>
</mgrwt>
</event>
<event>
 8      1 +1.6198320e-01 2.84738500e+02 7.81860800e-03 1.09312900e-01
        2 -1    0    0  501    0 +0.0000000000e+00 +0.0000000000e+00 +5.5558106234e+02 5.5558106234e+02 2.5500000000e-03 0.0000e+00 1.0000e+00
       -2 -1    0    0    0  501 -0.0000000000e+00 -0.0000000000e+00 -3.6482525158e+01 3.6482525247e+01 2.5500000000e-03 0.0000e+00 -1.0000e+00
  1000101  2    1    2    0    0 -1.5705982822e+01 +5.9788745236e+01 +3.1827283507e+02 3.4751832504e+02 1.2510002696e+02 1.9180e+02 0.0000e+00
 -1000101  2    1    2    0    0 +1.5705982822e+01 -5.9788745236e+01 +2.0082570211e+02 2.4454526255e+02 1.2510016328e+02 1.2124e+02 0.0000e+00
       11  1    3    3    0    0 +4.6923382748e-02 +1.0206946212e-01 +4.4543023224e-01 4.5937820134e-01 5.1100000000e-04 0.0000e+00 1.0000e+00
      255  1    3    3    0    0 -1.5752906205e+01 +5.9686675774e+01 +3.1782740483e+02 3.4705894684e+02 1.2500000000e+02 0.0000e+00 0.0000e+00
      -11  1    4    4    0    0 -1.6054912341e-02 -7.2580037079e-02 +8.3688942881e-03 7.4805892189e-02 5.1100000000e-04 0.0000e+00 -1.0000e+00
      255  1    4    4    0    0 +1.5722037735e+01 -5.9716165199e+01 +2.0081733322e+02 2.4447045666e+02 1.2500000000e+02 0.0000e+00 0.0000e+00
<mgrwt>
<rscale>  0 0.28473848E+03</rscale>
<asrwt>0</asrwt>
<pdfrwt beam="1">  1        2 0.85474002E-01 0.28473848E+03</pdfrwt>
<pdfrwt beam="2">  1       -2 0.56126967E-02 0.28473848E+03</pdfrwt>
<totfact> 0.90205643E+03</totfact>
</mgrwt>
</event>
<event>
 8      1 +1.6198320e-01 2.59841200e+02 7.81860800e-03 1.10723900e-01
        3 -1    0    0  501    0 +0.0000000000e+00 +0.0000000000e+00 +8.6006737298e+01 8.6006796602e+01 1.0100000000e-01 0.0000e+00 1.0000e+00
       -3 -1    0    0    0  501 -0.0000000000e+00 -0.0000000000e+00 -1.9625614278e+02 1.9625616877e+02 1.0100000000e-01 0.0000e+00 -1.0000e+00
  1000101  2    1    2    0    0 +3.3261122846e+01 +8.7390747265e-01 -6.7137739520e+01 1.4582360685e+02 1.2509988905e+02 1.1363e+02 0.0000e+00
 -1000101  2    1    2    0    0 -3.3261122846e+01 -8.7390747265e-01 -4.3111665962e+01 1.3643935852e+02 1.2510002720e+02 2.5524e+02 0.0000e+00
       11  1    3    3    0    0 +6.8125457690e-02 -6.4140950705e-03 +4.3547371246e-02 8.1110130475e-02 5.1100000000e-04 0.0000e+00 1.0000e+00
      255  1    3    3    0    0 +3.3192997388e+01 +8.8032156772e-01 -6.7181286891e+01 1.4574249672e+02 1.2500000000e+02 0.0000e+00 0.0000e+00
      -11  1    4    4    0    0 -1.9004397312e-02 +9.8675426617e-02 -2.4678518735e-02 1.0347607136e-01 5.1100000000e-04 0.0000e+00 -1.0000e+00
      255  1    4    4    0    0 -3.3242118449e+01 -9.7258289927e-01 -4.3086987443e+01 1.3633588245e+02 1.2500000000e+02 0.0000e+00 0.0000e+00
<mgrwt>
<rscale>  0 0.25984120E+03</rscale>
<asrwt>0</asrwt>
<pdfrwt beam="1">  1        3 0.13231812E-01 0.25984120E+03</pdfrwt>
<pdfrwt beam="2">  1       -3 0.30193259E-01 0.25984120E+03</pdfrwt>
<totfact> 0.12342587E+03</totfact>
</mgrwt>
</event>
<event>
 8      1 +1.6198320e-01 2.95582000e+02 7.81860800e-03 1.08747000e-01
       -1 -1    0    0    0  501 -0.0000000000e+00 +0.0000000000e+00 +6.4323909789e+01 6.4323909987e+01 5.0400000000e-03 0.0000e+00 -1.0000e+00
        1 -1    0    0  501    0 +0.0000000000e+00 -0.0000000000e+00 -3.3956550413e+02 3.3956550417e+02 5.0400000000e-03 0.0000e+00 1.0000e+00
  1000101  2    1    2    0    0 -5.8236906090e+01 +5.2793644357e+01 -1.4263646121e+02 2.0536277097e+02 1.2509996611e+02 2.2062e+01 0.0000e+00
 -1000101  2    1    2    0    0 +5.8236906090e+01 -5.2793644357e+01 -1.3260513314e+02 1.9852664319e+02 1.2509996245e+02 1.2026e+01 0.0000e+00
       11  1    3    3    0    0 -3.1710014975e-02 +1.3664392034e-02 -2.3185851448e-01 2.3441602445e-01 5.1100000000e-04 0.0000e+00 1.0000e+00
      255  1    3    3    0    0 -5.8205196075e+01 +5.2779979964e+01 -1.4240460269e+02 2.0512835495e+02 1.2500000000e+02 0.0000e+00 0.0000e+00
      -11  1    4    4    0    0 +1.3006732251e-01 -6.4547854744e-02 -5.5800199982e-02 1.5555660505e-01 5.1100000000e-04 0.0000e+00 -1.0000e+00
      255  1    4    4    0    0 +5.8106838767e+01 -5.2729096502e+01 -1.3254933294e+02 1.9837108658e+02 1.2500000000e+02 0.0000e+00 0.0000e+00
<mgrwt>
<rscale>  0 0.29558201E+03</rscale>
<asrwt>0</asrwt>
<pdfrwt beam="1">  1        1 0.52240846E-01 0.29558201E+03</pdfrwt>
<pdfrwt beam="2">  1       -1 0.98959863E-02 0.29558201E+03</pdfrwt>
<totfact> 0.46221922E+03</totfact>
</mgrwt>
</event>
<event>
 8      1 +1.6198320e-01 5.26360900e+02 7.81860800e-03 1.00711900e-01
        2 -1    0    0  501    0 +0.0000000000e+00 +0.0000000000e+00 +3.7765126292e+02 3.7765126292e+02 2.5500000000e-03 0.0000e+00 1.0000e+00
       -2 -1    0    0    0  501 -0.0000000000e+00 -0.0000000000e+00 -1.8340719190e+02 1.8340719192e+02 2.5500000000e-03 0.0000e+00 -1.0000e+00
  1000101  2    1    2    0    0 +1.6641383706e+02 -9.7946540167e+01 +2.3332167443e+02 3.2768290724e+02 1.2509993621e+02 2.4094e+02 0.0000e+00
 -1000101  2    1    2    0    0 -1.6641383706e+02 +9.7946540167e+01 -3.9077603415e+01 2.3337554761e+02 1.2509994899e+02 3.0205e+02 0.0000e+00
       11  1    3    3    0    0 -7.7895034474e-04 +3.0489156290e-02 +7.9879660252e-02 8.5505652785e-02 5.1100000000e-04 0.0000e+00 1.0000e+00
      255  1    3    3    0    0 +1.6641461601e+02 -9.7977029323e+01 +2.3324179477e+02 3.2759740158e+02 1.2500000000e+02 0.0000e+00 0.0000e+00
      -11  1    4    4    0    0 -2.1725242424e-01 +1.5672613681e-01 -1.2329127466e-01 2.9489438334e-01 5.1100000000e-04 0.0000e+00 -1.0000e+00
      255  1    4    4    0    0 -1.6619658464e+02 +9.7789814030e+01 -3.8954312140e+01 2.3308065323e+02 1.2500000000e+02 0.0000e+00 0.0000e+00
<mgrwt>
<rscale>  0 0.52636093E+03</rscale>
<asrwt>0</asrwt>
<pdfrwt beam="1">  1        2 0.58100193E-01 0.52636093E+03</pdfrwt>
<pdfrwt beam="2">  1       -2 0.28216491E-01 0.52636093E+03</pdfrwt>
<totfact> 0.97691637E+02</totfact>
</mgrwt>
</event>
<event>
 8      1 +1.6198320e-01 2.67120700e+02 7.81860800e-03 1.10293900e-01
       -2 -1    0    0    0  501 -0.0000000000e+00 +0.0000000000e+00 +2.6977143309e+01 2.6977143430e+01 2.5500000000e-03 0.0000e+00 -1.0000e+00
        2 -1    0    0  501    0 +0.0000000000e+00 -0.0000000000e+00 -6.6124015778e+02 6.6124015779e+02 2.5500000000e-03 0.0000e+00 1.0000e+00
  1000101  2    1    2    0    0 -3.3231477803e+01 +2.7404443253e+01 -3.6414892219e+02 3.8744003609e+02 1.2509999763e+02 8.9966e+01 0.0000e+00
 -1000101  2    1    2    0    0 +3.3231477803e+01 -2.7404443253e+01 -2.7011409229e+02 3.0077726513e+02 1.2509998297e+02 5.0812e+00 0.0000e+00
       11  1    3    3    0    0 -1.2601372658e-01 +3.0047104693e-03 -3.0903980134e-01 3.3375791752e-01 5.1100000000e-04 0.0000e+00 1.0000e+00
      255  1    3    3    0    0 -3.3105464077e+01 +2.7401438543e+01 -3.6383988238e+02 3.8710627817e+02 1.2500000000e+02 0.0000e+00 0.0000e+00
      -11  1    4    4    0    0 +5.9842526714e-03 +6.6675264954e-02 -5.9398164659e-02 8.9497515737e-02 5.1100000000e-04 0.0000e+00 -1.0000e+00
      255  1    4    4    0    0 +3.3225493550e+01 -2.7471118518e+01 -2.7005469412e+02 3.0068776761e+02 1.2500000000e+02 0.0000e+00 0.0000e+00
<mgrwt>
<rscale>  0 0.26712073E+03</rscale>
<asrwt>0</asrwt>
<pdfrwt beam="1">  1        2 0.10172924E+00 0.26712073E+03</pdfrwt>
<pdfrwt beam="2">  1       -2 0.41503302E-02 0.26712073E+03</pdfrwt>
<totfact> 0.11614511E+04</totfact>
</mgrwt>
</event>
<event>
 8      1 +1.6198320e-01 2.62455400e+02 7.81860800e-03 1.10567700e-01
        2 -1    0    0  501    0 +0.0000000000e+00 +0.0000000000e+00 +1.1970849047e+03 1.1970849047e+03 2.5500000000e-03 0.0000e+00 1.0000e+00
       -2 -1    0    0    0  501 -0.0000000000e+00 -0.0000000000e+00 -1.4385540972e+01 1.4385541198e+01 2.5500000000e-03 0.0000e+00 -1.0000e+00
  1000101  2    1    2    0    0 +2.3572180873e+01 +3.0178745033e+01 +5.4419863750e+02 5.5970400450e+02 1.2510000496e+02 2.6056e+02 0.0000e+00
 -1000101  2    1    2    0    0 -2.3572180873e+01 -3.0178745033e+01 +6.3850072622e+02 6.5176644138e+02 1.2509960980e+02 2.1296e+01 0.0000e+00
       11  1    3    3    0    0 +7.2571735512e-02 +1.0810522230e-01 +6.8371625558e-01 6.9600400513e-01 5.1100000000e-04 0.0000e+00 1.0000e+00
      255  1    3    3    0    0 +2.3499609137e+01 +3.0070639811e+01 +5.4351492124e+02 5.5900800050e+02 1.2500000000e+02 0.0000e+00 0.0000e+00
      -11  1    4    4    0    0 +8.1856425504e-02 -2.7837484896e-02 +4.6654770933e-01 4.7449175563e-01 5.1100000000e-04 0.0000e+00 -1.0000e+00
      255  1    4    4    0    0 -2.3654037298e+01 -3.0150907548e+01 +6.3803417851e+02 6.5129194963e+02 1.2500000000e+02 0.0000e+00 0.0000e+00
<mgrwt>
<rscale>  0 0.26245544E+03</rscale>
<asrwt>0</asrwt>
<pdfrwt beam="1">  1        2 0.18416695E+00 0.26245544E+03</pdfrwt>
<pdfrwt beam="2">  1       -2 0.22131597E-02 0.26245544E+03</pdfrwt>
<totfact> 0.13310521E+04</totfact>
</mgrwt>
</event>
<event>
 8      1 +1.6198320e-01 3.88190100e+02 7.81860800e-03 1.04794800e-01
       -2 -1    0    0    0  501 -0.0000000000e+00 +0.0000000000e+00 +1.4896144585e+01 1.4896144803e+01 2.5500000000e-03 0.0000e+00 -1.0000e+00
        2 -1    0    0  501    0 +0.0000000000e+00 -0.0000000000e+00 -2.5290356899e+03 2.5290356899e+03 2.5500000000e-03 0.0000e+00 1.0000e+00
  1000101  2    1    2    0    0 +8.4819165315e+01 -1.1398133123e+02 -1.5379327882e+03 1.5495397140e+03 1.2510007773e+02 9.9067e+01 0.0000e+00
 -1000101  2    1    2    0    0 -8.4819165315e+01 +1.1398133123e+02 -9.7620675714e+02 9.9439212077e+02 1.2510004991e+02 5.8465e+01 0.0000e+00
       11  1    3    3    0    0 +9.2766933833e-02 -2.0343906897e-01 -2.3169640708e+00 2.3277276312e+00 5.1100000000e-04 0.0000e+00 1.0000e+00
      255  1    3    3    0    0 +8.4726398381e+01 -1.1377789216e+02 -1.5356158241e+03 1.5472119863e+03 1.2500000000e+02 0.0000e+00 0.0000e+00
      -11  1    4    4    0    0 -5.9229437583e-02 +1.8948182479e-01 -7.6332283895e-01 7.8871636587e-01 5.1100000000e-04 0.0000e+00 -1.0000e+00
      255  1    4    4    0    0 -8.4759935878e+01 +1.1379184940e+02 -9.7544343430e+02 9.9360340440e+02 1.2500000000e+02 0.0000e+00 0.0000e+00
<mgrwt>
<rscale>  0 0.38819006E+03</rscale>
<asrwt>0</asrwt>
<pdfrwt beam="1">  1        2 0.38908207E+00 0.38819006E+03</pdfrwt>
<pdfrwt beam="2">  1       -2 0.22917166E-02 0.38819006E+03</pdfrwt>
<totfact> 0.24215204E+03</totfact>
</mgrwt>
</event>
<event>
 8      1 +1.6198320e-01 4.01049200e+02 7.81860800e-03 1.04341700e-01
       -2 -1    0    0    0  501 -0.0000000000e+00 +0.0000000000e+00 +1.4808791264e+02 1.4808791266e+02 2.5500000000e-03 0.0000e+00 -1.0000e+00
        2 -1    0    0  501    0 +0.0000000000e+00 -0.0000000000e+00 -2.7152863604e+02 2.7152863605e+02 2.5500000000e-03 0.0000e+00 1.0000e+00
  1000101  2    1    2    0    0 -2.6583093439e+01 -1.5338884046e+02 -4.2849467976e+01 2.0425689197e+02 1.2509997513e+02 2.3137e+02 0.0000e+00
 -1000101  2    1    2    0    0 +2.6583093439e+01 +1.5338884046e+02 -8.0591255422e+01 2.1535965675e+02 1.2510009620e+02 4.4706e+02 0.0000e+00
       11  1    3    3    0    0 +2.0008517608e-02 +4.3889622488e-03 +4.1787059979e-02 4.6540555104e-02 5.1100000000e-04 0.0000e+00 1.0000e+00
      255  1    3    3    0    0 -2.6603101956e+01 -1.5339322942e+02 -4.2891255036e+01 2.0421035141e+02 1.2500000000e+02 0.0000e+00 0.0000e+00
      -11  1    4    4    0    0 -6.2362080074e-02 +1.7779176790e-01 -4.3736287741e-02 1.9342198880e-01 5.1100000000e-04 0.0000e+00 -1.0000e+00
      255  1    4    4    0    0 +2.6645455519e+01 +1.5321104869e+02 -8.0547519134e+01 2.1516623476e+02 1.2500000000e+02 0.0000e+00 0.0000e+00
<mgrwt>
<rscale>  0 0.40104917E+03</rscale>
<asrwt>0</asrwt>
<pdfrwt beam="1">  1        2 0.41773636E-01 0.40104917E+03</pdfrwt>
<pdfrwt beam="2">  1       -2 0.22782756E-01 0.40104917E+03</pdfrwt>
<totfact> 0.20552868E+03</totfact>
</mgrwt>
</event>
<event>
 8      1 +1.6198320e-01 4.17267200e+02 7.81860800e-03 1.03795900e-01
       -1 -1    0    0    0  501 -0.0000000000e+00 +0.0000000000e+00 +3.9545828255e+02 3.9545828258e+02 5.0400000000e-03 0.0000e+00 -1.0000e+00
        1 -1    0    0  501    0 +0.0000000000e+00 -0.0000000000e+00 -1.1006972166e+02 1.1006972178e+02 5.0400000000e-03 0.0000e+00 1.0000e+00
  1000101  2    1    2    0    0 +9.7732378918e+01 +5.2698008457e+01 -8.3784232622e+00 1.6747809729e+02 1.2510002842e+02 1.9221e+01 0.0000e+00
 -1000101  2    1    2    0    0 -9.7732378918e+01 -5.2698008457e+01 +2.9376698415e+02 3.3804990707e+02 1.2509996288e+02 3.3923e+02 0.0000e+00
       11  1    3    3    0    0 -3.0680702702e-02 -2.8241056307e-02 -2.6113483761e-02 4.9204043893e-02 5.1100000000e-04 0.0000e+00 1.0000e+00
      255  1    3    3    0    0 +9.7763059621e+01 +5.2726249513e+01 -8.3523097785e+00 1.6742889324e+02 1.2500000000e+02 0.0000e+00 0.0000e+00
      -11  1    4    4    0    0 -1.2576054723e-01 -4.3623166072e-02 +4.7088189159e-01 4.8933496994e-01 5.1100000000e-04 0.0000e+00 -1.0000e+00
      255  1    4    4    0    0 -9.7606618371e+01 -5.2654385291e+01 +2.9329610225e+02 3.3756057210e+02 1.2500000000e+02 0.0000e+00 0.0000e+00
<mgrwt>
<rscale>  0 0.41726722E+03</rscale>
<asrwt>0</asrwt>
<pdfrwt beam="1">  1        1 0.16933803E-01 0.41726722E+03</pdfrwt>
<pdfrwt beam="2">  1       -1 0.60839736E-01 0.41726722E+03</pdfrwt>
<totfact> 0.90143405E+02</totfact>
</mgrwt>
</event>
<event>
 8      1 +1.6198320e-01 2.85127800e+02 7.81860800e-03 1.09292100e-01
        2 -1    0    0  501    0 +0.0000000000e+00 +0.0000000000e+00 +6.5285456866e+02 6.5285456866e+02 2.5500000000e-03 0.0000e+00 1.0000e+00
       -2 -1    0    0    0  501 -0.0000000000e+00 -0.0000000000e+00 -3.1131696164e+01 3.1131696269e+01 2.5500000000e-03 0.0000e+00 -1.0000e+00
  1000101  2    1    2    0    0 -3.3103971148e+01 -5.8834500852e+01 +3.3681963444e+02 3.6558836426e+02 1.2510001815e+02 6.8236e+01 0.0000e+00
 -1000101  2    1    2    0    0 +3.3103971148e+01 +5.8834500852e+01 +2.8490323805e+02 3.1839790067e+02 1.2509994686e+02 3.3050e+00 0.0000e+00
       11  1    3    3    0    0 -1.2279700404e-01 -3.0995349994e-02 +3.7499877435e-01 3.9580823363e-01 5.1100000000e-04 0.0000e+00 1.0000e+00
      255  1    3    3    0    0 -3.2981174144e+01 -5.8803505502e+01 +3.3644463566e+02 3.6519255602e+02 1.2500000000e+02 0.0000e+00 0.0000e+00
      -11  1    4    4    0    0 +2.6376769436e-02 -3.2056936158e-02 +3.1718586341e-01 3.1989141000e-01 5.1100000000e-04 0.0000e+00 -1.0000e+00
      255  1    4    4    0    0 +3.3077594379e+01 +5.8866557788e+01 +2.8458605219e+02 3.1807800926e+02 1.2500000000e+02 0.0000e+00 0.0000e+00
<mgrwt>
<rscale>  0 0.28512783E+03</rscale>
<asrwt>0</asrwt>
<pdfrwt beam="1">  1        2 0.10043916E+00 0.28512783E+03</pdfrwt>
<pdfrwt beam="2">  1       -2 0.47894920E-02 0.28512783E+03</pdfrwt>
<totfact> 0.95190780E+03</totfact>
</mgrwt>
</event>
<event>
 8      1 +1.6198320e-01 3.60337700e+02 7.81860800e-03 1.05845000e-01
        2 -1    0    0  501    0 +0.0000000000e+00 +0.0000000000e+00 +6.2929733865e+01 6.2929733917e+01 2.5500000000e-03 0.0000e+00 1.0000e+00
       -2 -1    0    0    0  501 -0.0000000000e+00 -0.0000000000e+00 -5.1582629864e+02 5.1582629864e+02 2.5500000000e-03 0.0000e+00 -1.0000e+00
  1000101  2    1    2    0    0 +3.0940954637e+01 +9.5565982139e+01 -3.5811904895e+02 3.9241490729e+02 1.2509998650e+02 1.6186e+00 0.0000e+00
 -1000101  2    1    2    0    0 -3.0940954637e+01 -9.5565982139e+01 -9.4777515820e+01 1.8634112527e+02 1.2510011130e+02 3.1286e+01 0.0000e+00
       11  1    3    3    0    0 -6.9553018923e-02 +1.0163234566e-01 -3.3229982033e-01 3.5438705935e-01 5.1100000000e-04 0.0000e+00 1.0000e+00
      255  1    3    3    0    0 +3.1010507656e+01 +9.5464349793e+01 -3.5778674913e+02 3.9206052023e+02 1.2500000000e+02 0.0000e+00 0.0000e+00
      -11  1    4    4    0    0 +5.3531214728e-02 -1.4355939759e-01 -8.9507332249e-02 1.7744496396e-01 5.1100000000e-04 0.0000e+00 -1.0000e+00
      255  1    4    4    0    0 -3.0994485852e+01 -9.5422422741e+01 -9.4688008488e+01 1.8616368031e+02 1.2500000000e+02 0.0000e+00 0.0000e+00
<mgrwt>
<rscale>  0 0.36033768E+03</rscale>
<asrwt>0</asrwt>
<pdfrwt beam="1">  1        2 0.96814978E-02 0.36033768E+03</pdfrwt>
<pdfrwt beam="2">  1       -2 0.79357890E-01 0.36033768E+03</pdfrwt>
<totfact> 0.97338240E+02</totfact>
</mgrwt>
</event>
<event>
 8      1 +1.6198320e-01 3.15834700e+02 7.81860800e-03 1.07758200e-01
        2 -1    0    0  501    0 +0.0000000000e+00 +0.0000000000e+00 +1.9365759976e+02 1.9365759978e+02 2.5500000000e-03 0.0000e+00 1.0000e+00
       -2 -1    0    0    0  501 -0.0000000000e+00 -0.0000000000e+00 -1.2877312497e+02 1.2877312499e+02 2.5500000000e-03 0.0000e+00 -1.0000e+00
  1000101  2    1    2    0    0 +6.4432304244e+01 -4.0813129002e+01 -2.7700347753e+01 1.4911250142e+02 1.2509994198e+02 9.0843e+01 0.0000e+00
 -1000101  2    1    2    0    0 -6.4432304244e+01 +4.0813129002e+01 +9.2584822546e+01 1.7331822335e+02 1.2510005536e+02 1.2760e+01 0.0000e+00
       11  1    3    3    0    0 +1.2863679471e-01 +3.2602418154e-02 -2.0364632798e-02 1.3425841506e-01 5.1100000000e-04 0.0000e+00 1.0000e+00
      255  1    3    3    0    0 +6.4303667449e+01 -4.0845731420e+01 -2.7679983120e+01 1.4897824300e+02 1.2500000000e+02 0.0000e+00 0.0000e+00
      -11  1    4    4    0    0 -1.5296709077e-01 +2.2861302475e-02 +5.6716897111e-02 1.6473808773e-01 5.1100000000e-04 0.0000e+00 -1.0000e+00
      255  1    4    4    0    0 -6.4279337153e+01 +4.0790267699e+01 +9.2528105649e+01 1.7315348526e+02 1.2500000000e+02 0.0000e+00 0.0000e+00
<mgrwt>
<rscale>  0 0.31583473E+03</rscale>
<asrwt>0</asrwt>
<pdfrwt beam="1">  1        2 0.29793477E-01 0.31583473E+03</pdfrwt>
<pdfrwt beam="2">  1       -2 0.19811250E-01 0.31583473E+03</pdfrwt>
<totfact> 0.37762408E+03</totfact>
</mgrwt>
</event>
<event>
 8      1 +1.6198320e-01 3.19861700e+02 7.81860800e-03 1.07571300e-01
       -1 -1    0    0    0  501 -0.0000000000e+00 +0.0000000000e+00 +2.1123327870e+01 2.1123328472e+01 5.0400000000e-03 0.0000e+00 1.0000e+00
        1 -1    0    0  501    0 +0.0000000000e+00 -0.0000000000e+00 -1.2108829108e+03 1.2108829108e+03 5.0400000000e-03 0.0000e+00 -1.0000e+00
  1000101  2    1    2    0    0 -5.5047645767e+01 -8.0917386248e+01 -6.6693911585e+02 6.8559147067e+02 1.2510001481e+02 1.0487e+02 0.0000e+00
 -1000101  2    1    2    0    0 +5.5047645767e+01 +8.0917386248e+01 -5.2282046703e+02 5.4641476856e+02 1.2509992747e+02 1.6139e+02 0.0000e+00
       11  1    3    3    0    0 +4.6593841037e-03 +5.0624169115e-02 -1.8482860131e-01 1.9169347757e-01 5.1100000000e-04 0.0000e+00 1.0000e+00
      255  1    3    3    0    0 -5.5052305151e+01 -8.0968010417e+01 -6.6675428725e+02 6.8539977719e+02 1.2500000000e+02 0.0000e+00 0.0000e+00
      -11  1    4    4    0    0 -6.0007110555e-02 +5.0436402701e-02 -3.7474593008e-01 3.8285696711e-01 5.1100000000e-04 0.0000e+00 -1.0000e+00
      255  1    4    4    0    0 +5.5107652877e+01 +8.0866949845e+01 -5.2244572110e+02 5.4603191160e+02 1.2500000000e+02 0.0000e+00 0.0000e+00
<mgrwt>
<rscale>  0 0.31986170E+03</rscale>
<asrwt>0</asrwt>
<pdfrwt beam="1">  1        1 0.18628962E+00 0.31986170E+03</pdfrwt>
<pdfrwt beam="2">  1       -1 0.32497437E-02 0.31986170E+03</pdfrwt>
<totfact> 0.37774037E+03</totfact>
</mgrwt>
</event>
<event>
 8      1 +1.6198320e-01 3.25957700e+02 7.81860800e-03 1.07294000e-01
        2 -1    0    0  501    0 +0.0000000000e+00 +0.0000000000e+00 +1.5058060280e+03 1.5058060280e+03 2.5500000000e-03 0.0000e+00 1.0000e+00
       -2 -1    0    0    0  501 -0.0000000000e+00 -0.0000000000e+00 -1.7639795106e+01 1.7639795290e+01 2.5500000000e-03 0.0000e+00 -1.0000e+00
  1000101  2    1    2    0    0 +1.8623476432e+01 +2.7215105437e+01 +2.8082469320e+02 3.0919250685e+02 1.2509996860e+02 1.2150e+01 0.0000e+00
 -1000101  2    1    2    0    0 -1.8623476432e+01 -2.7215105437e+01 +1.2073415397e+03 1.2142533165e+03 1.2510006866e+02 4.8558e+01 0.0000e+00
       11  1    3    3    0    0 -8.0303571097e-02 -6.5881018131e-03 +2.3563598935e-01 2.4903141813e-01 5.1100000000e-04 0.0000e+00 1.0000e+00
      255  1    3    3    0    0 +1.8703780004e+01 +2.7221693539e+01 +2.8058905721e+02 3.0894347543e+02 1.2500000000e+02 0.0000e+00 0.0000e+00
      -11  1    4    4    0    0 +5.0338905365e-02 +5.7872719353e-02 +6.3120404539e-01 6.3584751716e-01 5.1100000000e-04 0.0000e+00 -1.0000e+00
      255  1    4    4    0    0 -1.8673815338e+01 -2.7272978156e+01 +1.2067103357e+03 1.2136174689e+03 1.2500000000e+02 0.0000e+00 0.0000e+00
<mgrwt>
<rscale>  0 0.32595773E+03</rscale>
<asrwt>0</asrwt>
<pdfrwt beam="1">  1        2 0.23166250E+00 0.32595773E+03</pdfrwt>
<pdfrwt beam="2">  1       -2 0.27138142E-02 0.32595773E+03</pdfrwt>
<totfact> 0.66803814E+03</totfact>
</mgrwt>
</event>
<event>
 8      1 +1.6198320e-01 2.97530000e+02 7.81860800e-03 1.08648200e-01
        2 -1    0    0  501    0 +0.0000000000e+00 +0.0000000000e+00 +3.7919833978e+01 3.7919834064e+01 2.5500000000e-03 0.0000e+00 1.0000e+00
       -2 -1    0    0    0  501 -0.0000000000e+00 -0.0000000000e+00 -5.8362655592e+02 5.8362655593e+02 2.5500000000e-03 0.0000e+00 -1.0000e+00
  1000101  2    1    2    0    0 +6.0715870399e+01 -2.7063527385e+01 -3.6771812909e+02 3.9406281575e+02 1.2510007541e+02 6.5047e+01 0.0000e+00
 -1000101  2    1    2    0    0 -6.0715870399e+01 +2.7063527385e+01 -1.7798859286e+02 2.2748357424e+02 1.2509990379e+02 3.0246e+02 0.0000e+00
       11  1    3    3    0    0 -4.2657631344e-02 -3.8071089774e-02 -3.4554008330e-01 3.5023890657e-01 5.1100000000e-04 0.0000e+00 1.0000e+00
      255  1    3    3    0    0 +6.0758528030e+01 -2.7025456295e+01 -3.6737258900e+02 3.9371257685e+02 1.2500000000e+02 0.0000e+00 0.0000e+00
      -11  1    4    4    0    0 -7.4452703873e-02 -1.2253238312e-02 -2.9311854988e-01 3.0267489550e-01 5.1100000000e-04 0.0000e+00 -1.0000e+00
      255  1    4    4    0    0 -6.0641417695e+01 +2.7075780623e+01 -1.7769547431e+02 2.2718089934e+02 1.2500000000e+02 0.0000e+00 0.0000e+00
<mgrwt>
<rscale>  0 0.29752998E+03</rscale>
<asrwt>0</asrwt>
<pdfrwt beam="1">  1        2 0.58338210E-02 0.29752998E+03</pdfrwt>
<pdfrwt beam="2">  1       -2 0.89788694E-01 0.29752998E+03</pdfrwt>
<totfact> 0.14111550E+03</totfact>
</mgrwt>
</event>
<event>
 8      1 +1.6198320e-01 2.80042400e+02 7.81860800e-03 1.09566600e-01
        2 -1    0    0  501    0 +0.0000000000e+00 +0.0000000000e+00 +1.3430061643e+03 1.3430061643e+03 2.5500000000e-03 0.0000e+00 1.0000e+00
       -2 -1    0    0    0  501 -0.0000000000e+00 -0.0000000000e+00 -1.4598550377e+01 1.4598550600e+01 2.5500000000e-03 0.0000e+00 -1.0000e+00
  1000101  2    1    2    0    0 +5.1157087814e+01 -3.0081567438e+01 +7.6519718155e+02 7.7762373603e+02 1.2509995945e+02 2.2256e+02 0.0000e+00
 -1000101  2    1    2    0    0 -5.1157087814e+01 +3.0081567438e+01 +5.6321043234e+02 5.7998097884e+02 1.2509994558e+02 5.9647e+00 0.0000e+00
       11  1    3    3    0    0 +2.9152452629e-02 -1.1501226087e-01 +4.5780046925e-01 4.7292622724e-01 5.1100000000e-04 0.0000e+00 1.0000e+00
      255  1    3    3    0    0 +5.1127935362e+01 -2.9966555178e+01 +7.6473938108e+02 7.7715080980e+02 1.2500000000e+02 0.0000e+00 0.0000e+00
      -11  1    4    4    0    0 -9.5470923897e-02 +2.8848464361e-02 +1.7518669682e-01 2.0158762628e-01 5.1100000000e-04 0.0000e+00 -1.0000e+00
      255  1    4    4    0    0 -5.1061616890e+01 +3.0052718974e+01 +5.6303524564e+02 5.7977939121e+02 1.2500000000e+02 0.0000e+00 0.0000e+00
<mgrwt>
<rscale>  0 0.28004245E+03</rscale>
<asrwt>0</asrwt>
<pdfrwt beam="1">  1        2 0.20661633E+00 0.28004245E+03</pdfrwt>
<pdfrwt beam="2">  1       -2 0.22459308E-02 0.28004245E+03</pdfrwt>
<totfact> 0.10818298E+04</totfact>
</mgrwt>
</event>
<event>
 8      1 +1.6198320e-01 2.69444500e+02 7.81860800e-03 1.10159800e-01
       -2 -1    0    0    0  501 -0.0000000000e+00 +0.0000000000e+00 +4.5188503409e+01 4.5188503480e+01 2.5500000000e-03 0.0000e+00 -1.0000e+00
        2 -1    0    0  501    0 +0.0000000000e+00 -0.0000000000e+00 -4.0165259614e+02 4.0165259615e+02 2.5500000000e-03 0.0000e+00 1.0000e+00
  1000101  2    1    2    0    0 +1.7387777581e+01 +4.6781792849e+01 -1.7317518699e+02 2.1938642538e+02 1.2509950960e+02 1.0650e+01 0.0000e+00
 -1000101  2    1    2    0    0 -1.7387777581e+01 -4.6781792849e+01 -1.8328890575e+02 2.2745467425e+02 1.2509969991e+02 3.6017e+01 0.0000e+00
       11  1    3    3    0    0 -1.5591070086e-02 -2.7755278758e-02 -2.2465562522e-01 2.2690052452e-01 5.1100000000e-04 0.0000e+00 1.0000e+00
      255  1    3    3    0    0 +1.7403368652e+01 +4.6809548128e+01 -1.7295053136e+02 2.1915952485e+02 1.2500000000e+02 0.0000e+00 0.0000e+00
      -11  1    4    4    0    0 -8.7007858041e-02 -8.6776594831e-02 -9.2292741214e-02 1.5368394833e-01 5.1100000000e-04 0.0000e+00 -1.0000e+00
      255  1    4    4    0    0 -1.7300769723e+01 -4.6695016254e+01 -1.8319661301e+02 2.2730099030e+02 1.2500000000e+02 0.0000e+00 0.0000e+00
<mgrwt>
<rscale>  0 0.26944446E+03</rscale>
<asrwt>0</asrwt>
<pdfrwt beam="1">  1        2 0.61792705E-01 0.26944446E+03</pdfrwt>
<pdfrwt beam="2">  1       -2 0.69520777E-02 0.26944446E+03</pdfrwt>
<totfact> 0.92870491E+03</totfact>
</mgrwt>
</event>
<event>
 8      1 +1.6198320e-01 3.34453000e+02 7.81860800e-03 1.06918300e-01
       -1 -1    0    0    0  501 -0.0000000000e+00 +0.0000000000e+00 +3.3515878813e+02 3.3515878817e+02 5.0400000000e-03 0.0000e+00 1.0000e+00
        1 -1    0    0  501    0 +0.0000000000e+00 -0.0000000000e+00 -8.3437193546e+01 8.3437193698e+01 5.0400000000e-03 0.0000e+00 -1.0000e+00
  1000101  2    1    2    0    0 -8.5455526030e+01 -6.5707456648e+01 +9.2875436905e+01 1.8946224001e+02 1.2509986740e+02 1.2726e+01 0.0000e+00
 -1000101  2    1    2    0    0 +8.5455526030e+01 +6.5707456648e+01 +1.5884615768e+02 2.2913374185e+02 1.2510017209e+02 2.5188e+01 0.0000e+00
       11  1    3    3    0    0 +2.6444790546e-02 +3.5797349721e-02 +4.6493991019e-02 6.4364039000e-02 5.1100000000e-04 0.0000e+00 1.0000e+00
      255  1    3    3    0    0 -8.5481970821e+01 -6.5743253998e+01 +9.2828942914e+01 1.8939787598e+02 1.2500000000e+02 0.0000e+00 0.0000e+00
      -11  1    4    4    0    0 +1.6359682095e-01 +4.1008230494e-02 +9.6367340629e-02 1.9424860426e-01 5.1100000000e-04 0.0000e+00 -1.0000e+00
      255  1    4    4    0    0 +8.5291929209e+01 +6.5666448417e+01 +1.5874979034e+02 2.2893949325e+02 1.2500000000e+02 0.0000e+00 0.0000e+00
<mgrwt>
<rscale>  0 0.33445304E+03</rscale>
<asrwt>0</asrwt>
<pdfrwt beam="1">  1        1 0.12836491E-01 0.33445304E+03</pdfrwt>
<pdfrwt beam="2">  1       -1 0.51562891E-01 0.33445304E+03</pdfrwt>
<totfact> 0.17830514E+03</totfact>
</mgrwt>
</event>
<event>
 8      1 +1.6198320e-01 2.60470300e+02 7.81860800e-03 1.10686100e-01
        3 -1    0    0  501    0 +0.0000000000e+00 +0.0000000000e+00 +3.8488899666e+02 3.8488900991e+02 1.0100000000e-01 0.0000e+00 1.0000e+00
       -3 -1    0    0    0  501 -0.0000000000e+00 -0.0000000000e+00 -4.4067689896e+01 4.4067805639e+01 1.0100000000e-01 0.0000e+00 -1.0000e+00
  1000101  2    1    2    0    0 -1.1345771150e+01 -2.0941144841e+01 +1.2549170830e+02 1.7878862993e+02 1.2509974929e+02 1.7490e+02 0.0000e+00
 -1000101  2    1    2    0    0 +1.1345771150e+01 +2.0941144841e+01 +2.1532959847e+02 2.5016818562e+02 1.2510006814e+02 1.5161e+01 0.0000e+00
       11  1    3    3    0    0 -1.3895930814e-02 -8.8674895152e-02 +2.1025910809e-01 2.2861646393e-01 5.1100000000e-04 0.0000e+00 1.0000e+00
      255  1    3    3    0    0 -1.1331875219e+01 -2.0852469945e+01 +1.2528144919e+02 1.7856001347e+02 1.2500000000e+02 0.0000e+00 0.0000e+00
      -11  1    4    4    0    0 -6.0691959659e-02 -5.6277903969e-02 +1.1826451752e-01 1.4435190912e-01 5.1100000000e-04 0.0000e+00 -1.0000e+00
      255  1    4    4    0    0 +1.1406463110e+01 +2.0997422744e+01 +2.1521133395e+02 2.5002383371e+02 1.2500000000e+02 0.0000e+00 0.0000e+00
<mgrwt>
<rscale>  0 0.26047032E+03</rscale>
<asrwt>0</asrwt>
<pdfrwt beam="1">  1        3 0.59213699E-01 0.26047032E+03</pdfrwt>
<pdfrwt beam="2">  1       -3 0.67796548E-02 0.26047032E+03</pdfrwt>
<totfact> 0.99980622E+02</totfact>
</mgrwt>
</event>
<event>
 8      1 +1.6198320e-01 3.07857700e+02 7.81860800e-03 1.08137700e-01
       -2 -1    0    0    0  501 -0.0000000000e+00 +0.0000000000e+00 +6.1795592916e+01 6.1795592968e+01 2.5500000000e-03 0.0000e+00 -1.0000e+00
        2 -1    0    0  501    0 +0.0000000000e+00 -0.0000000000e+00 -3.8342686887e+02 3.8342686888e+02 2.5500000000e-03 0.0000e+00 1.0000e+00
  1000101  2    1    2    0    0 +7.9585324653e+01 -1.1171192628e+01 -1.0323166908e+02 1.8101218954e+02 1.2510002324e+02 8.6572e+00 0.0000e+00
 -1000101  2    1    2    0    0 -7.9585324653e+01 +1.1171192628e+01 -2.1839960687e+02 2.6421027231e+02 1.2510020091e+02 2.3197e+01 0.0000e+00
       11  1    3    3    0    0 -1.6966585270e-02 -5.6313275674e-02 +9.6633920347e-03 5.9604465437e-02 5.1100000000e-04 0.0000e+00 1.0000e+00
      255  1    3    3    0    0 +7.9602291239e+01 -1.1114879353e+01 -1.0324133248e+02 1.8095258507e+02 1.2500000000e+02 0.0000e+00 0.0000e+00
      -11  1    4    4    0    0 +4.9023729243e-02 +2.5933068124e-02 -4.7525429798e-02 7.3039562224e-02 5.1100000000e-04 0.0000e+00 -1.0000e+00
      255  1    4    4    0    0 -7.9634348383e+01 +1.1145259560e+01 -2.1835208144e+02 2.6413723274e+02 1.2500000000e+02 0.0000e+00 0.0000e+00
<mgrwt>
<rscale>  0 0.30785770E+03</rscale>
<asrwt>0</asrwt>
<pdfrwt beam="1">  1        2 0.58988748E-01 0.30785770E+03</pdfrwt>
<pdfrwt beam="2">  1       -2 0.95070145E-02 0.30785770E+03</pdfrwt>
<totfact> 0.60097633E+03</totfact>
</mgrwt>
</event>
<event>
 8      1 +1.6198320e-01 3.23025500e+02 7.81860800e-03 1.07426500e-01
       -1 -1    0    0    0  501 -0.0000000000e+00 +0.0000000000e+00 +3.9886738199e+01 3.9886738518e+01 5.0400000000e-03 0.0000e+00 -1.0000e+00
        1 -1    0    0  501    0 +0.0000000000e+00 -0.0000000000e+00 -6.5401090504e+02 6.5401090506e+02 5.0400000000e-03 0.0000e+00 1.0000e+00
  1000101  2    1    2    0    0 +7.4612286811e+00 +9.8873864897e+01 -3.5988619130e+02 3.9370016677e+02 1.2510011804e+02 2.8153e+02 0.0000e+00
 -1000101  2    1    2    0    0 -7.4612286811e+00 -9.8873864897e+01 -2.5423797554e+02 3.0019747680e+02 1.2509942358e+02 9.7911e+00 0.0000e+00
       11  1    3    3    0    0 -9.2371114892e-02 +6.6074645605e-02 -2.1419050637e-01 2.4243785966e-01 5.1100000000e-04 0.0000e+00 1.0000e+00
      255  1    3    3    0    0 +7.5535997960e+00 +9.8807790252e+01 -3.5967200080e+02 3.9345772891e+02 1.2500000000e+02 0.0000e+00 0.0000e+00
      -11  1    4    4    0    0 -4.8664337519e-02 -7.2311214629e-02 -3.0641200773e-02 9.2391957516e-02 5.1100000000e-04 0.0000e+00 -1.0000e+00
      255  1    4    4    0    0 -7.4125643436e+00 -9.8801553683e+01 -2.5420733434e+02 3.0010508485e+02 1.2500000000e+02 0.0000e+00 0.0000e+00
<mgrwt>
<rscale>  0 0.32302546E+03</rscale>
<asrwt>0</asrwt>
<pdfrwt beam="1">  1        1 0.10061705E+00 0.32302546E+03</pdfrwt>
<pdfrwt beam="2">  1       -1 0.61364218E-02 0.32302546E+03</pdfrwt>
<totfact> 0.40254083E+03</totfact>
</mgrwt>
</event>
<event>
 8      1 +1.6198320e-01 2.83125300e+02 7.81860800e-03 1.09399400e-01
       -2 -1    0    0    0  501 -0.0000000000e+00 +0.0000000000e+00 +2.9591690180e+01 2.9591690290e+01 2.5500000000e-03 0.0000e+00 -1.0000e+00
        2 -1    0    0  501    0 +0.0000000000e+00 -0.0000000000e+00 -6.7721643089e+02 6.7721643090e+02 2.5500000000e-03 0.0000e+00 1.0000e+00
  1000101  2    1    2    0    0 +1.5801715407e+00 -6.5813809480e+01 -3.4251319916e+02 3.7053880717e+02 1.2509900704e+02 2.2670e+02 0.0000e+00
 -1000101  2    1    2    0    0 -1.5801715407e+00 +6.5813809480e+01 -3.0511154155e+02 3.3626931401e+02 1.2510013709e+02 3.8203e+01 0.0000e+00
       11  1    3    3    0    0 +7.8372023390e-02 -1.2187131854e-01 -3.7621738743e-01 4.0315577145e-01 5.1100000000e-04 0.0000e+00 1.0000e+00
      255  1    3    3    0    0 +1.5017995173e+00 -6.5691938162e+01 -3.4213698177e+02 3.7013565140e+02 1.2500000000e+02 0.0000e+00 0.0000e+00
      -11  1    4    4    0    0 -7.7318201980e-02 +1.2259248006e-01 -3.6728117532e-01 3.9484521447e-01 5.1100000000e-04 0.0000e+00 -1.0000e+00
      255  1    4    4    0    0 -1.5028533387e+00 +6.5691217000e+01 -3.0474426038e+02 3.3587446880e+02 1.2500000000e+02 0.0000e+00 0.0000e+00
<mgrwt>
<rscale>  0 0.28312526E+03</rscale>
<asrwt>0</asrwt>
<pdfrwt beam="1">  1        2 0.10418713E+00 0.28312526E+03</pdfrwt>
<pdfrwt beam="2">  1       -2 0.45525682E-02 0.28312526E+03</pdfrwt>
<totfact> 0.98370757E+03</totfact>
</mgrwt>
</event>
<event>
 8      1 +1.6198320e-01 2.91334600e+02 7.81860800e-03 1.08965400e-01
        4 -1    0    0  501    0 +0.0000000000e+00 +0.0000000000e+00 +7.5242058025e+02 7.5242165206e+02 1.2700000000e+00 0.0000e+00 1.0000e+00
       -4 -1    0    0    0  501 -0.0000000000e+00 -0.0000000000e+00 -2.8185544019e+01 2.8214141696e+01 1.2700000000e+00 0.0000e+00 -1.0000e+00
  1000101  2    1    2    0    0 +4.2721887490e-01 +6.8848747554e+01 +4.3924999876e+02 4.6187755461e+02 1.2509988600e+02 2.1236e+01 0.0000e+00
 -1000101  2    1    2    0    0 -4.2721887490e-01 -6.8848747554e+01 +2.8498503747e+02 3.1875823915e+02 1.2510000355e+02 8.1569e+01 0.0000e+00
       11  1    3    3    0    0 +8.8269782649e-02 +8.6645971117e-02 +2.7419091958e-01 3.0079893674e-01 5.1100000000e-04 0.0000e+00 1.0000e+00
      255  1    3    3    0    0 +3.3894909225e-01 +6.8762101583e+01 +4.3897580784e+02 4.6157675567e+02 1.2500000000e+02 0.0000e+00 0.0000e+00
      -11  1    4    4    0    0 -6.8459866242e-02 +1.3718082888e-02 +2.5437767989e-01 2.6378628515e-01 5.1100000000e-04 0.0000e+00 -1.0000e+00
      255  1    4    4    0    0 -3.5875900866e-01 -6.8862465637e+01 +2.8473065979e+02 3.1849445286e+02 1.2500000000e+02 0.0000e+00 0.0000e+00
<mgrwt>
<rscale>  0 0.29133461E+03</rscale>
<asrwt>0</asrwt>
<pdfrwt beam="1">  1        4 0.11575930E+00 0.29133461E+03</pdfrwt>
<pdfrwt beam="2">  1       -4 0.43385196E-02 0.29133461E+03</pdfrwt>
<totfact> 0.34124078E+02</totfact>
</mgrwt>
</event>
<event>
 8      1 +1.6198320e-01 7.68359000e+02 7.81860800e-03 9.60698000e-02
        2 -1    0    0  501    0 +0.0000000000e+00 +0.0000000000e+00 +1.8228581935e+03 1.8228581935e+03 2.5500000000e-03 0.0000e+00 1.0000e+00
       -2 -1    0    0    0  501 -0.0000000000e+00 -0.0000000000e+00 -8.0968385094e+01 8.0968385134e+01 2.5500000000e-03 0.0000e+00 -1.0000e+00
  1000101  2    1    2    0    0 +3.4908223752e+02 +3.5695485298e+01 +1.1035307335e+03 1.1647157043e+03 1.2510002303e+02 1.0137e+01 0.0000e+00
 -1000101  2    1    2    0    0 -3.4908223752e+02 -3.5695485298e+01 +6.3835907489e+02 7.3911087435e+02 1.2509995953e+02 8.0700e+00 0.0000e+00
       11  1    3    3    0    0 +1.5062601771e-01 +5.6244216961e-02 +7.8725884801e-01 8.0351002734e-01 5.1100000000e-04 0.0000e+00 1.0000e+00
      255  1    3    3    0    0 +3.4893161150e+02 +3.5639241081e+01 +1.1027434747e+03 1.1639121942e+03 1.2500000000e+02 0.0000e+00 0.0000e+00
      -11  1    4    4    0    0 -5.4364267300e-01 -7.8076175619e-02 +1.0162379632e+00 1.1551550130e+00 5.1100000000e-04 0.0000e+00 -1.0000e+00
      255  1    4    4    0    0 -3.4853859484e+02 -3.5617409123e+01 +6.3734283692e+02 7.3795571934e+02 1.2500000000e+02 0.0000e+00 0.0000e+00
<mgrwt>
<rscale>  0 0.76835899E+03</rscale>
<asrwt>0</asrwt>
<pdfrwt beam="1">  1        2 0.28043971E+00 0.76835899E+03</pdfrwt>
<pdfrwt beam="2">  1       -2 0.12456675E-01 0.76835899E+03</pdfrwt>
<totfact> 0.40811423E+02</totfact>
</mgrwt>
</event>
<event>
 8      1 +1.6198320e-01 6.50693700e+02 7.81860800e-03 9.80547800e-02
        1 -1    0    0  501    0 +0.0000000000e+00 +0.0000000000e+00 +1.0870861425e+03 1.0870861425e+03 5.0400000000e-03 0.0000e+00 -1.0000e+00
       -1 -1    0    0    0  501 -0.0000000000e+00 -0.0000000000e+00 -9.7370904597e+01 9.7370904727e+01 5.0400000000e-03 0.0000e+00 1.0000e+00
  1000101  2    1    2    0    0 -2.5385296242e+01 -1.2927601142e+02 +9.8614929186e+02 1.0027447943e+03 1.2509994508e+02 2.3380e+01 0.0000e+00
 -1000101  2    1    2    0    0 +2.5385296242e+01 +1.2927601142e+02 +3.5659460216e+00 1.8171225292e+02 1.2509966625e+02 3.5701e+00 0.0000e+00
       11  1    3    3    0    0 -9.4476081184e-02 -1.5106190175e-01 +6.7259067866e-01 6.9579013374e-01 5.1100000000e-04 0.0000e+00 1.0000e+00
      255  1    3    3    0    0 -2.5290820160e+01 -1.2912494952e+02 +9.8547670118e+02 1.0020490042e+03 1.2500000000e+02 0.0000e+00 0.0000e+00
      -11  1    4    4    0    0 -7.4699488517e-02 +5.0621323666e-02 +2.8832419474e-02 9.4731734537e-02 5.1100000000e-04 0.0000e+00 -1.0000e+00
      255  1    4    4    0    0 +2.5459995730e+01 +1.2922539010e+02 +3.5371136021e+00 1.8161752119e+02 1.2500000000e+02 0.0000e+00 0.0000e+00
<mgrwt>
<rscale>  0 0.65069366E+03</rscale>
<asrwt>0</asrwt>
<pdfrwt beam="1">  1        1 0.16724403E+00 0.65069366E+03</pdfrwt>
<pdfrwt beam="2">  1       -1 0.14980139E-01 0.65069366E+03</pdfrwt>
<totfact> 0.43397489E+02</totfact>
</mgrwt>
</event>
<event>
 8      1 +1.6198320e-01 3.39618400e+02 7.81860800e-03 1.06695900e-01
        2 -1    0    0  501    0 +0.0000000000e+00 +0.0000000000e+00 +2.9528046261e+03 2.9528046261e+03 2.5500000000e-03 0.0000e+00 -1.0000e+00
       -2 -1    0    0    0  501 -0.0000000000e+00 -0.0000000000e+00 -9.7653464871e+00 9.7653468200e+00 2.5500000000e-03 0.0000e+00 1.0000e+00
  1000101  2    1    2    0    0 +3.4417324141e+01 +4.7068555028e+01 +2.3344210165e+03 2.3384976983e+03 1.2509996601e+02 1.2562e+00 0.0000e+00
 -1000101  2    1    2    0    0 -3.4417324141e+01 -4.7068555028e+01 +6.0861826313e+02 6.2407227466e+02 1.2510001084e+02 7.6005e+01 0.0000e+00
       11  1    3    3    0    0 +5.6681446019e-02 +1.3332990943e-01 +1.8702874166e+00 1.8758904373e+00 5.1100000000e-04 0.0000e+00 1.0000e+00
      255  1    3    3    0    0 +3.4360642695e+01 +4.6935225118e+01 +2.3325507291e+03 2.3366218078e+03 1.2500000000e+02 0.0000e+00 0.0000e+00
      -11  1    4    4    0    0 -7.8785506291e-02 +4.5223949825e-02 +5.4127264166e-01 5.4884305168e-01 5.1100000000e-04 0.0000e+00 -1.0000e+00
      255  1    4    4    0    0 -3.4338538634e+01 -4.7113778977e+01 +6.0807699049e+02 6.2352343161e+02 1.2500000000e+02 0.0000e+00 0.0000e+00
<mgrwt>
<rscale>  0 0.33961838E+03</rscale>
<asrwt>0</asrwt>
<pdfrwt beam="1">  1        2 0.45427804E+00 0.33961838E+03</pdfrwt>
<pdfrwt beam="2">  1       -2 0.15023597E-02 0.33961838E+03</pdfrwt>
<totfact> 0.25981651E+03</totfact>
</mgrwt>
</event>
<event>
 8      1 +1.6198320e-01 4.07345600e+02 7.81860800e-03 1.04126500e-01
       -1 -1    0    0    0  501 -0.0000000000e+00 +0.0000000000e+00 +2.5451013523e+01 2.5451014022e+01 5.0400000000e-03 0.0000e+00 -1.0000e+00
        1 -1    0    0  501    0 +0.0000000000e+00 -0.0000000000e+00 -1.6298997575e+03 1.6298997575e+03 5.0400000000e-03 0.0000e+00 1.0000e+00
  1000101  2    1    2    0    0 +1.6445416580e+01 +1.2250503775e+02 -3.8473141635e+02 4.2302033949e+02 1.2509999557e+02 1.4782e+02 0.0000e+00
 -1000101  2    1    2    0    0 -1.6445416580e+01 -1.2250503775e+02 -1.2197173276e+03 1.2323304320e+03 1.2509995375e+02 0.0000e+00 0.0000e+00
       11  1    3    3    0    0 +6.4409990088e-02 +6.6225144832e-03 -5.8824647906e-02 8.7482025837e-02 5.1100000000e-04 0.0000e+00 1.0000e+00
      255  1    3    3    0    0 +1.6381006590e+01 +1.2249841524e+02 -3.8467259171e+02 4.2293285746e+02 1.2500000000e+02 0.0000e+00 0.0000e+00
      -11  1    4    4    0    0 +1.1472337123e-02 -1.7704548342e-01 -8.0264855890e-01 8.2202292423e-01 5.1100000000e-04 0.0000e+00 -1.0000e+00
      255  1    4    4    0    0 -1.6456888917e+01 -1.2232799227e+02 -1.2189146790e+03 1.2315084091e+03 1.2500000000e+02 0.0000e+00 0.0000e+00
<mgrwt>
<rscale>  0 0.40734556E+03</rscale>
<asrwt>0</asrwt>
<pdfrwt beam="1">  1        1 0.25075373E+00 0.40734556E+03</pdfrwt>
<pdfrwt beam="2">  1       -1 0.39155419E-02 0.40734556E+03</pdfrwt>
<totfact> 0.14832516E+03</totfact>
</mgrwt>
</event>
<event>
 8      1 +1.6198320e-01 3.26335200e+02 7.81860800e-03 1.07277000e-01
       -2 -1    0    0    0  501 -0.0000000000e+00 +0.0000000000e+00 +1.3123020994e+01 1.3123021242e+01 2.5500000000e-03 0.0000e+00 -1.0000e+00
        2 -1    0    0  501    0 +0.0000000000e+00 -0.0000000000e+00 -2.0287761163e+03 2.0287761163e+03 2.5500000000e-03 0.0000e+00 1.0000e+00
  1000101  2    1    2    0    0 +7.9082097416e+01 -2.2017731109e+01 -1.4150111570e+03 1.4229003223e+03 1.2509993727e+02 1.5744e+02 0.0000e+00
 -1000101  2    1    2    0    0 -7.9082097416e+01 +2.2017731109e+01 -6.0064193831e+02 6.1899881519e+02 1.2510010608e+02 1.9621e+01 0.0000e+00
       11  1    3    3    0    0 +1.4132012062e-01 +4.9107156979e-02 -1.6212350355e+00 1.6281235183e+00 5.1100000000e-04 0.0000e+00 1.0000e+00
      255  1    3    3    0    0 +7.8940777295e+01 -2.2066838266e+01 -1.4133899219e+03 1.4212721988e+03 1.2500000000e+02 0.0000e+00 0.0000e+00
      -11  1    4    4    0    0 -9.6170621214e-03 +5.2825494845e-02 -5.5654201063e-02 7.7334804626e-02 5.1100000000e-04 0.0000e+00 -1.0000e+00
      255  1    4    4    0    0 -7.9072480354e+01 +2.1964905614e+01 -6.0058628411e+02 6.1892148039e+02 1.2500000000e+02 0.0000e+00 0.0000e+00
<mgrwt>
<rscale>  0 0.32633524E+03</rscale>
<asrwt>0</asrwt>
<pdfrwt beam="1">  1        2 0.31211915E+00 0.32633524E+03</pdfrwt>
<pdfrwt beam="2">  1       -2 0.20189279E-02 0.32633524E+03</pdfrwt>
<totfact> 0.54697604E+03</totfact>
</mgrwt>
</event>
<event>
 8      1 +1.6198320e-01 3.76016900e+02 7.81860800e-03 1.05241600e-01
        2 -1    0    0  501    0 +0.0000000000e+00 +0.0000000000e+00 +6.9518824282e+02 6.9518824282e+02 2.5500000000e-03 0.0000e+00 1.0000e+00
       -2 -1    0    0    0  501 -0.0000000000e+00 -0.0000000000e+00 -5.0845480149e+01 5.0845480213e+01 2.5500000000e-03 0.0000e+00 -1.0000e+00
  1000101  2    1    2    0    0 -1.2759692844e+02 +5.3173380062e+01 +2.7403357145e+02 3.3144041024e+02 1.2509981121e+02 8.3317e+01 0.0000e+00
 -1000101  2    1    2    0    0 +1.2759692844e+02 -5.3173380062e+01 +3.7030919122e+02 4.1459331279e+02 1.2510129263e+02 2.7640e+02 0.0000e+00
       11  1    3    3    0    0 -1.6032131660e-01 +7.1635804062e-02 +4.4886558094e-01 4.8199085453e-01 5.1100000000e-04 0.0000e+00 1.0000e+00
      255  1    3    3    0    0 -1.2743660712e+02 +5.3101744258e+01 +2.7358470587e+02 3.3095841939e+02 1.2500000000e+02 0.0000e+00 0.0000e+00
      -11  1    4    4    0    0 +5.9036887500e-02 +6.5259682841e-02 +2.1723249296e-01 2.3438088106e-01 5.1100000000e-04 0.0000e+00 -1.0000e+00
      255  1    4    4    0    0 +1.2753789155e+02 -5.3238639745e+01 +3.7009195872e+02 4.1435893191e+02 1.2500000000e+02 0.0000e+00 0.0000e+00
<mgrwt>
<rscale>  0 0.37601691E+03</rscale>
<asrwt>0</asrwt>
<pdfrwt beam="1">  1        2 0.10695204E+00 0.37601691E+03</pdfrwt>
<pdfrwt beam="2">  1       -2 0.78223816E-02 0.37601691E+03</pdfrwt>
<totfact> 0.41641305E+03</totfact>
</mgrwt>
</event>
<event>
 8      1 +1.6198320e-01 3.44010800e+02 7.81860800e-03 1.06510000e-01
        2 -1    0    0  501    0 +0.0000000000e+00 +0.0000000000e+00 +1.2278046027e+03 1.2278046027e+03 2.5500000000e-03 0.0000e+00 1.0000e+00
       -2 -1    0    0    0  501 -0.0000000000e+00 -0.0000000000e+00 -2.4096547222e+01 2.4096547357e+01 2.5500000000e-03 0.0000e+00 -1.0000e+00
  1000101  2    1    2    0    0 +7.7876201022e+01 -3.9659294035e+01 +8.9066197413e+02 9.0364053733e+02 1.2509958539e+02 1.8633e+02 0.0000e+00
 -1000101  2    1    2    0    0 -7.7876201022e+01 +3.9659294035e+01 +3.1304608139e+02 3.4826061277e+02 1.2510013206e+02 2.6288e+00 0.0000e+00
       11  1    3    3    0    0 +5.7523997459e-02 -1.9535468977e-02 +1.2626743819e+00 1.2641350801e+00 5.1100000000e-04 0.0000e+00 1.0000e+00
      255  1    3    3    0    0 +7.7818677024e+01 -3.9639758566e+01 +8.8939929974e+02 9.0237640225e+02 1.2500000000e+02 0.0000e+00 0.0000e+00
      -11  1    4    4    0    0 -7.3084805547e-04 -5.9945244402e-02 +6.9648925393e-02 9.1897771440e-02 5.1100000000e-04 0.0000e+00 -1.0000e+00
      255  1    4    4    0    0 -7.7875470174e+01 +3.9719239280e+01 +3.1297643247e+02 3.4816871500e+02 1.2500000000e+02 0.0000e+00 0.0000e+00
<mgrwt>
<rscale>  0 0.34401077E+03</rscale>
<asrwt>0</asrwt>
<pdfrwt beam="1">  1        2 0.18889301E+00 0.34401077E+03</pdfrwt>
<pdfrwt beam="2">  1       -2 0.37071612E-02 0.34401077E+03</pdfrwt>
<totfact> 0.59607312E+03</totfact>
</mgrwt>
</event>
<event>
 8      1 +1.6198320e-01 3.20998600e+02 7.81860800e-03 1.07519100e-01
       -2 -1    0    0    0  501 -0.0000000000e+00 +0.0000000000e+00 +3.6177037946e+02 3.6177037947e+02 2.5500000000e-03 0.0000e+00 -1.0000e+00
        2 -1    0    0  501    0 +0.0000000000e+00 -0.0000000000e+00 -7.1205459095e+01 7.1205459140e+01 2.5500000000e-03 0.0000e+00 1.0000e+00
  1000101  2    1    2    0    0 +2.9088999283e+00 +6.4003575576e+01 +4.0757019729e+01 1.4634207001e+02 1.2509974985e+02 5.5028e+01 0.0000e+00
 -1000101  2    1    2    0    0 -2.9088999283e+00 -6.4003575576e+01 +2.4980790064e+02 2.8663376860e+02 1.2510000278e+02 3.4384e+01 0.0000e+00
       11  1    3    3    0    0 -8.0811014325e-02 -1.0018839599e-02 +3.7793598815e-02 8.9774241386e-02 5.1100000000e-04 0.0000e+00 1.0000e+00
      255  1    3    3    0    0 +2.9897109427e+00 +6.4013594415e+01 +4.0719226130e+01 1.4625229577e+02 1.2500000000e+02 0.0000e+00 0.0000e+00
      -11  1    4    4    0    0 -7.5842885626e-02 -3.2516924454e-02 +5.3686746730e-02 9.8448065355e-02 5.1100000000e-04 0.0000e+00 -1.0000e+00
      255  1    4    4    0    0 -2.8330570427e+00 -6.3971058651e+01 +2.4975421389e+02 2.8653532054e+02 1.2500000000e+02 0.0000e+00 0.0000e+00
<mgrwt>
<rscale>  0 0.32099860E+03</rscale>
<asrwt>0</asrwt>
<pdfrwt beam="1">  1        2 0.10954686E-01 0.32099860E+03</pdfrwt>
<pdfrwt beam="2">  1       -2 0.55656980E-01 0.32099860E+03</pdfrwt>
<totfact> 0.17720343E+03</totfact>
</mgrwt>
</event>
<event>
 8      1 +1.6198320e-01 2.51623000e+02 7.81860800e-03 1.11228300e-01
        2 -1    0    0  501    0 +0.0000000000e+00 +0.0000000000e+00 +7.7345311087e+02 7.7345311088e+02 2.5500000000e-03 0.0000e+00 1.0000e+00
       -2 -1    0    0    0  501 -0.0000000000e+00 -0.0000000000e+00 -2.0464763489e+01 2.0464763648e+01 2.5500000000e-03 0.0000e+00 -1.0000e+00
  1000101  2    1    2    0    0 +1.3186046532e+01 +9.8508457264e-01 +3.8255404808e+02 4.0270639168e+02 1.2509994399e+02 1.0863e+02 0.0000e+00
 -1000101  2    1    2    0    0 -1.3186046532e+01 -9.8508457264e-01 +3.7043429930e+02 3.9121148284e+02 1.2510000796e+02 7.6377e+01 0.0000e+00
       11  1    3    3    0    0 +5.2079958940e-02 -7.1559732424e-02 +4.9337281699e-01 5.0124855620e-01 5.1100000000e-04 0.0000e+00 1.0000e+00
      255  1    3    3    0    0 +1.3133966574e+01 +1.0566443051e+00 +3.8206067526e+02 4.0220514313e+02 1.2500000000e+02 0.0000e+00 0.0000e+00
      -11  1    4    4    0    0 -8.3809150887e-03 +9.4254938373e-02 +1.9697245736e-01 2.1852378182e-01 5.1100000000e-04 0.0000e+00 -1.0000e+00
      255  1    4    4    0    0 -1.3177665617e+01 -1.0793395110e+00 +3.7023732684e+02 3.9099295906e+02 1.2500000000e+02 0.0000e+00 0.0000e+00
<mgrwt>
<rscale>  0 0.25162301E+03</rscale>
<asrwt>0</asrwt>
<pdfrwt beam="1">  1        2 0.11899277E+00 0.25162301E+03</pdfrwt>
<pdfrwt beam="2">  1       -2 0.31484257E-02 0.25162301E+03</pdfrwt>
<totfact> 0.14468116E+04</totfact>
</mgrwt>
</event>
<event>
 8      1 +1.6198320e-01 6.00476200e+02 7.81860800e-03 9.90441900e-02
       -2 -1    0    0    0  501 -0.0000000000e+00 +0.0000000000e+00 +7.1992083198e+01 7.1992083243e+01 2.5500000000e-03 0.0000e+00 -1.0000e+00
        2 -1    0    0  501    0 +0.0000000000e+00 -0.0000000000e+00 -1.2521224775e+03 1.2521224775e+03 2.5500000000e-03 0.0000e+00 1.0000e+00
  1000101  2    1    2    0    0 +9.2902541146e+01 +2.7170752772e+01 -2.7335985323e+01 1.6051923324e+02 1.2510010468e+02 1.5407e+02 0.0000e+00
 -1000101  2    1    2    0    0 -9.2902541146e+01 -2.7170752772e+01 -1.1527944089e+03 1.1635953275e+03 1.2509997942e+02 1.5472e+01 0.0000e+00
       11  1    3    3    0    0 +1.4200022987e-01 -1.9841277133e-03 -1.0756182579e-01 1.7815108626e-01 5.1100000000e-04 0.0000e+00 1.0000e+00
      255  1    3    3    0    0 +9.2760540916e+01 +2.7172736900e+01 -2.7228423497e+01 1.6034108216e+02 1.2500000000e+02 0.0000e+00 0.0000e+00
      -11  1    4    4    0    0 -1.9746677939e-02 -1.0126513075e-01 -5.5164993645e-01 5.6121517397e-01 5.1100000000e-04 0.0000e+00 -1.0000e+00
      255  1    4    4    0    0 -9.2882794468e+01 -2.7069487641e+01 -1.1522427590e+03 1.1630341123e+03 1.2500000000e+02 0.0000e+00 0.0000e+00
<mgrwt>
<rscale>  0 0.60047616E+03</rscale>
<asrwt>0</asrwt>
<pdfrwt beam="1">  1        2 0.19263421E+00 0.60047616E+03</pdfrwt>
<pdfrwt beam="2">  1       -2 0.11075706E-01 0.60047616E+03</pdfrwt>
<totfact> 0.10375013E+03</totfact>
</mgrwt>
</event>
<event>
 8      1 +1.6198320e-01 4.41655900e+02 7.81860800e-03 1.03024000e-01
        1 -1    0    0  501    0 +0.0000000000e+00 +0.0000000000e+00 +7.5971883220e+01 7.5971883387e+01 5.0400000000e-03 0.0000e+00 1.0000e+00
       -1 -1    0    0    0  501 -0.0000000000e+00 -0.0000000000e+00 -6.4188194855e+02 6.4188194857e+02 5.0400000000e-03 0.0000e+00 -1.0000e+00
  1000101  2    1    2    0    0 +6.9953294603e+01 -4.2803387947e+01 -1.8918316363e+01 1.5077746307e+02 1.2510134784e+02 7.7761e+00 0.0000e+00
 -1000101  2    1    2    0    0 -6.9953294603e+01 +4.2803387947e+01 -5.4699174896e+02 5.6707636888e+02 1.2510012495e+02 1.1156e+02 0.0000e+00
       11  1    3    3    0    0 +9.1752537970e-02 -8.4697947335e-02 +6.7919232707e-02 1.4214624089e-01 5.1100000000e-04 0.0000e+00 1.0000e+00
      255  1    3    3    0    0 +6.9861542065e+01 -4.2718690000e+01 -1.8986235596e+01 1.5063531683e+02 1.2500000000e+02 0.0000e+00 0.0000e+00
      -11  1    4    4    0    0 -1.5860367596e-02 +1.1550949970e-01 -6.1599595749e-01 6.2693323133e-01 5.1100000000e-04 0.0000e+00 -1.0000e+00
      255  1    4    4    0    0 -6.9937434235e+01 +4.2687878448e+01 -5.4637575301e+02 5.6644943565e+02 1.2500000000e+02 0.0000e+00 0.0000e+00
<mgrwt>
<rscale>  0 0.44165589E+03</rscale>
<asrwt>0</asrwt>
<pdfrwt beam="1">  1        1 0.11687982E-01 0.44165589E+03</pdfrwt>
<pdfrwt beam="2">  1       -1 0.98751065E-01 0.44165589E+03</pdfrwt>
<totfact> 0.53881213E+02</totfact>
</mgrwt>
</event>
<event>
 8      1 +1.6198320e-01 4.40294500e+02 7.81860800e-03 1.03065600e-01
        2 -1    0    0  501    0 +0.0000000000e+00 +0.0000000000e+00 +1.0526700774e+03 1.0526700774e+03 2.5500000000e-03 0.0000e+00 1.0000e+00
       -2 -1    0    0    0  501 -0.0000000000e+00 -0.0000000000e+00 -4.6039896651e+01 4.6039896721e+01 2.5500000000e-03 0.0000e+00 -1.0000e+00
  1000101  2    1    2    0    0 +5.3170647498e+01 +4.1123466649e+01 +8.3549796759e+01 1.6476903370e+02 1.2509999466e+02 7.5251e+01 0.0000e+00
 -1000101  2    1    2    0    0 -5.3170647498e+01 -4.1123466649e+01 +9.2308038402e+02 9.3394094045e+02 1.2510007047e+02 0.0000e+00 0.0000e+00
       11  1    3    3    0    0 +1.1593613621e-01 +9.1019535000e-02 +1.5825851313e-01 2.1626780049e-01 5.1100000000e-04 0.0000e+00 1.0000e+00
      255  1    3    3    0    0 +5.3054711362e+01 +4.1032447114e+01 +8.3391538246e+01 1.6455276590e+02 1.2500000000e+02 0.0000e+00 0.0000e+00
      -11  1    4    4    0    0 -7.4225341335e-02 -5.7239742930e-02 +2.4541552244e-01 2.6270673620e-01 5.1100000000e-04 0.0000e+00 -1.0000e+00
      255  1    4    4    0    0 -5.3096422157e+01 -4.1066226906e+01 +9.2283496849e+02 9.3367823372e+02 1.2500000000e+02 0.0000e+00 0.0000e+00
<mgrwt>
<rscale>  0 0.44029455E+03</rscale>
<asrwt>0</asrwt>
<pdfrwt beam="1">  1        2 0.16194925E+00 0.44029455E+03</pdfrwt>
<pdfrwt beam="2">  1       -2 0.70830608E-02 0.44029455E+03</pdfrwt>
<totfact> 0.27966975E+03</totfact>
</mgrwt>
</event>
<event>
 8      1 +1.6198320e-01 2.61983400e+02 7.81860800e-03 1.10595700e-01
        2 -1    0    0  501    0 +0.0000000000e+00 +0.0000000000e+00 +9.1584344675e+01 9.1584344711e+01 2.5500000000e-03 0.0000e+00 1.0000e+00
       -2 -1    0    0    0  501 -0.0000000000e+00 -0.0000000000e+00 -1.8735548564e+02 1.8735548565e+02 2.5500000000e-03 0.0000e+00 -1.0000e+00
  1000101  2    1    2    0    0 -2.0334654690e+01 +3.2952640329e+01 -5.1154665414e+01 1.4059238726e+02 1.2510013939e+02 9.0556e+01 0.0000e+00
 -1000101  2    1    2    0    0 +2.0334654690e+01 -3.2952640329e+01 -4.4616475547e+01 1.3834744310e+02 1.2510000175e+02 1.7151e+02 0.0000e+00
       11  1    3    3    0    0 -4.5426524441e-02 +3.7084039614e-02 +5.8698966529e-02 8.2973639850e-02 5.1100000000e-04 0.0000e+00 1.0000e+00
      255  1    3    3    0    0 -2.0289228165e+01 +3.2915556290e+01 -5.1213364380e+01 1.4050941362e+02 1.2500000000e+02 0.0000e+00 0.0000e+00
      -11  1    4    4    0    0 +5.8165675634e-02 -6.4172567555e-02 -1.2987962671e-01 1.5611003429e-01 5.1100000000e-04 0.0000e+00 -1.0000e+00
      255  1    4    4    0    0 +2.0276489014e+01 -3.2888467762e+01 -4.4486595920e+01 1.3819133307e+02 1.2500000000e+02 0.0000e+00 0.0000e+00
<mgrwt>
<rscale>  0 0.26198343E+03</rscale>
<asrwt>0</asrwt>
<pdfrwt beam="1">  1        2 0.14089899E-01 0.26198343E+03</pdfrwt>
<pdfrwt beam="2">  1       -2 0.28823921E-01 0.26198343E+03</pdfrwt>
<totfact> 0.45826040E+03</totfact>
</mgrwt>
</event>
<event>
 8      1 +1.6198320e-01 2.61741500e+02 7.81860800e-03 1.10610100e-01
        2 -1    0    0  501    0 +0.0000000000e+00 +0.0000000000e+00 +4.8291316598e+02 4.8291316599e+02 2.5500000000e-03 0.0000e+00 1.0000e+00
       -2 -1    0    0    0  501 -0.0000000000e+00 -0.0000000000e+00 -3.5466331462e+01 3.5466331554e+01 2.5500000000e-03 0.0000e+00 -1.0000e+00
  1000101  2    1    2    0    0 -2.3707089154e+01 +2.9316600461e+01 +2.0894423424e+02 2.4643283186e+02 1.2509979400e+02 4.1786e+01 0.0000e+00
 -1000101  2    1    2    0    0 +2.3707089154e+01 -2.9316600461e+01 +2.3850260028e+02 2.7194666568e+02 1.2509999799e+02 6.6984e+01 0.0000e+00
       11  1    3    3    0    0 -1.1094958606e-01 -1.3999157519e-02 +2.0303906828e-01 2.3179929126e-01 5.1100000000e-04 0.0000e+00 1.0000e+00
      255  1    3    3    0    0 -2.3596139567e+01 +2.9330599619e+01 +2.0874119518e+02 2.4620103257e+02 1.2500000000e+02 0.0000e+00 0.0000e+00
      -11  1    4    4    0    0 +1.0878041463e-01 +2.0520153503e-02 +2.1388288027e-01 2.4083272805e-01 5.1100000000e-04 0.0000e+00 -1.0000e+00
      255  1    4    4    0    0 +2.3598308739e+01 -2.9337120615e+01 +2.3828871740e+02 2.7170583295e+02 1.2500000000e+02 0.0000e+00 0.0000e+00
<mgrwt>
<rscale>  0 0.26174154E+03</rscale>
<asrwt>0</asrwt>
<pdfrwt beam="1">  1        2 0.74294332E-01 0.26174154E+03</pdfrwt>
<pdfrwt beam="2">  1       -2 0.54563587E-02 0.26174154E+03</pdfrwt>
<totfact> 0.10992505E+04</totfact>
</mgrwt>
</event>
<event>
 8      1 +1.6198320e-01 3.44080400e+02 7.81860800e-03 1.06507100e-01
        3 -1    0    0  501    0 +0.0000000000e+00 +0.0000000000e+00 +9.1925812241e+02 9.1925812796e+02 1.0100000000e-01 0.0000e+00 1.0000e+00
       -3 -1    0    0    0  501 -0.0000000000e+00 -0.0000000000e+00 -3.2197425753e+01 3.2197584166e+01 1.0100000000e-01 0.0000e+00 -1.0000e+00
  1000101  2    1    2    0    0 +1.1279099387e+01 +1.1731955860e+02 +4.2270594904e+02 4.5631286256e+02 1.2510000908e+02 1.6439e+02 0.0000e+00
 -1000101  2    1    2    0    0 -1.1279099387e+01 -1.1731955860e+02 +4.6435474762e+02 4.9514284957e+02 1.2510001171e+02 3.9808e+01 0.0000e+00
       11  1    3    3    0    0 +9.8379217427e-02 +5.7338973790e-02 +3.7678786270e-01 3.9361857545e-01 5.1100000000e-04 0.0000e+00 1.0000e+00
      255  1    3    3    0    0 +1.1180720170e+01 +1.1726221962e+02 +4.2232916118e+02 4.5591924398e+02 1.2500000000e+02 0.0000e+00 0.0000e+00
      -11  1    4    4    0    0 -2.1174800528e-03 -1.3554397279e-02 -1.1388877681e-02 1.7837406301e-02 5.1100000000e-04 0.0000e+00 -1.0000e+00
      255  1    4    4    0    0 -1.1276981907e+01 -1.1730600420e+02 +4.6436613650e+02 4.9512501216e+02 1.2500000000e+02 0.0000e+00 0.0000e+00
<mgrwt>
<rscale>  0 0.34408036E+03</rscale>
<asrwt>0</asrwt>
<pdfrwt beam="1">  1        3 0.14142436E+00 0.34408036E+03</pdfrwt>
<pdfrwt beam="2">  1       -3 0.49534620E-02 0.34408036E+03</pdfrwt>
<totfact> 0.23670403E+02</totfact>
</mgrwt>
</event>
<event>
 8      1 +1.6198320e-01 8.87339200e+02 7.81860800e-03 9.44154800e-02
        2 -1    0    0  501    0 +0.0000000000e+00 +0.0000000000e+00 +1.1446824363e+03 1.1446824363e+03 2.5500000000e-03 0.0000e+00 1.0000e+00
       -2 -1    0    0    0  501 -0.0000000000e+00 -0.0000000000e+00 -1.7196272202e+02 1.7196272204e+02 2.5500000000e-03 0.0000e+00 -1.0000e+00
  1000101  2    1    2    0    0 -1.6933872424e+02 +3.7625780763e+02 +6.4160915614e+02 7.7301866386e+02 1.2509997643e+02 2.9637e+02 0.0000e+00
 -1000101  2    1    2    0    0 +1.6933872424e+02 -3.7625780763e+02 +3.3111055818e+02 5.4362649453e+02 1.2510004992e+02 2.9557e+01 0.0000e+00
       11  1    3    3    0    0 -2.2483282502e-01 +5.1726513795e-01 +7.1564134995e-01 9.1118374932e-01 5.1100000000e-04 0.0000e+00 1.0000e+00
      255  1    3    3    0    0 -1.6911389141e+02 +3.7574054249e+02 +6.4089351479e+02 7.7210748011e+02 1.2500000000e+02 0.0000e+00 0.0000e+00
      -11  1    4    4    0    0 +1.7440240300e-01 -1.5768765075e-01 +1.7884196707e-01 2.9540870617e-01 5.1100000000e-04 0.0000e+00 -1.0000e+00
      255  1    4    4    0    0 +1.6916432184e+02 -3.7610011998e+02 +3.3093171621e+02 5.4333108583e+02 1.2500000000e+02 0.0000e+00 0.0000e+00
<mgrwt>
<rscale>  0 0.88733919E+03</rscale>
<asrwt>0</asrwt>
<pdfrwt beam="1">  1        2 0.17610499E+00 0.88733919E+03</pdfrwt>
<pdfrwt beam="2">  1       -2 0.26455803E-01 0.88733919E+03</pdfrwt>
<totfact> 0.26505011E+02</totfact>
</mgrwt>
</event>
<event>
 8      1 +1.6198320e-01 4.09941500e+02 7.81860800e-03 1.04039100e-01
        2 -1    0    0  501    0 +0.0000000000e+00 +0.0000000000e+00 +9.7923191894e+01 9.7923191927e+01 2.5500000000e-03 0.0000e+00 1.0000e+00
       -2 -1    0    0    0  501 -0.0000000000e+00 -0.0000000000e+00 -4.2904036764e+02 4.2904036765e+02 2.5500000000e-03 0.0000e+00 -1.0000e+00
  1000101  2    1    2    0    0 +1.0762626050e+02 -2.7395539027e+01 -1.3303044130e+01 1.6781213271e+02 1.2510001356e+02 4.0931e+01 0.0000e+00
 -1000101  2    1    2    0    0 -1.0762626050e+02 +2.7395539027e+01 -3.1781413162e+02 3.5915142687e+02 1.2509995067e+02 3.4718e+02 0.0000e+00
       11  1    3    3    0    0 +1.8662775815e-01 +3.1441205595e-02 -2.7850920270e-02 1.9129663981e-01 5.1100000000e-04 0.0000e+00 1.0000e+00
      255  1    3    3    0    0 +1.0743963275e+02 -2.7426980232e+01 -1.3275193210e+01 1.6762083607e+02 1.2500000000e+02 0.0000e+00 0.0000e+00
      -11  1    4    4    0    0 -9.1060273060e-02 +8.0611262923e-03 -4.3593685416e-02 1.0127993689e-01 5.1100000000e-04 0.0000e+00 -1.0000e+00
      255  1    4    4    0    0 -1.0753520023e+02 +2.7387477900e+01 -3.1777053793e+02 3.5905014693e+02 1.2500000000e+02 0.0000e+00 0.0000e+00
<mgrwt>
<rscale>  0 0.40994147E+03</rscale>
<asrwt>0</asrwt>
<pdfrwt beam="1">  1        2 0.15065107E-01 0.40994147E+03</pdfrwt>
<pdfrwt beam="2">  1       -2 0.66006210E-01 0.40994147E+03</pdfrwt>
<totfact> 0.84444283E+02</totfact>
</mgrwt>
</event>
<event>
 8      1 +1.6198320e-01 3.06188300e+02 7.81860800e-03 1.08218700e-01
       -4 -1    0    0    0  501 -0.0000000000e+00 +0.0000000000e+00 +1.0625339168e+02 1.0626098128e+02 1.2700000000e+00 0.0000e+00 -1.0000e+00
        4 -1    0    0  501    0 +0.0000000000e+00 -0.0000000000e+00 -2.2056686355e+02 2.2057051978e+02 1.2700000000e+00 0.0000e+00 1.0000e+00
  1000101  2    1    2    0    0 -3.1282216650e+01 -3.9949854581e+01 +1.9913369339e+01 1.3645953465e+02 1.2510033717e+02 1.7446e+02 0.0000e+00
 -1000101  2    1    2    0    0 +3.1282216650e+01 +3.9949854581e+01 -1.3422684121e+02 1.9037196641e+02 1.2510025073e+02 7.0897e+01 0.0000e+00
       11  1    3    3    0    0 -3.5749549320e-02 +6.6800547592e-02 +4.2254849825e-02 8.6752964736e-02 5.1100000000e-04 0.0000e+00 1.0000e+00
      255  1    3    3    0    0 -3.1246467100e+01 -4.0016655129e+01 +1.9871114489e+01 1.3637278169e+02 1.2500000000e+02 0.0000e+00 0.0000e+00
      -11  1    4    4    0    0 +9.1488724191e-02 -2.7527607353e-02 -1.6978148719e-01 1.9481778752e-01 5.1100000000e-04 0.0000e+00 -1.0000e+00
      255  1    4    4    0    0 +3.1190727926e+01 +3.9977382188e+01 -1.3405705972e+02 1.9017714862e+02 1.2500000000e+02 0.0000e+00 0.0000e+00
<mgrwt>
<rscale>  0 0.30618828E+03</rscale>
<asrwt>0</asrwt>
<pdfrwt beam="1">  1        4 0.33934229E-01 0.30618828E+03</pdfrwt>
<pdfrwt beam="2">  1       -4 0.16347541E-01 0.30618828E+03</pdfrwt>
<totfact> 0.51616575E+02</totfact>
</mgrwt>
</event>
<event>
 8      1 +1.6198320e-01 4.67748100e+02 7.81860800e-03 1.02255800e-01
        2 -1    0    0  501    0 +0.0000000000e+00 +0.0000000000e+00 +3.8973834121e+02 3.8973834121e+02 2.5500000000e-03 0.0000e+00 1.0000e+00
       -2 -1    0    0    0  501 -0.0000000000e+00 -0.0000000000e+00 -1.4034308146e+02 1.4034308148e+02 2.5500000000e-03 0.0000e+00 -1.0000e+00
  1000101  2    1    2    0    0 -1.3772891685e+02 -1.1222833261e+02 +2.6668317727e+01 2.1891943599e+02 1.2510022824e+02 1.2981e+02 0.0000e+00
 -1000101  2    1    2    0    0 +1.3772891685e+02 +1.1222833261e+02 +2.2272694202e+02 3.1116198671e+02 1.2510011227e+02 8.6478e+01 0.0000e+00
       11  1    3    3    0    0 -2.3886236753e-02 -1.4436347918e-01 +3.5844485850e-02 1.5065342583e-01 5.1100000000e-04 0.0000e+00 1.0000e+00
      255  1    3    3    0    0 -1.3770503062e+02 -1.1208396913e+02 +2.6632473241e+01 2.1876878256e+02 1.2500000000e+02 0.0000e+00 0.0000e+00
      -11  1    4    4    0    0 +1.7150460019e-01 +9.3871177739e-02 +3.4759373169e-01 3.9880733360e-01 5.1100000000e-04 0.0000e+00 -1.0000e+00
      255  1    4    4    0    0 +1.3755741225e+02 +1.1213446143e+02 +2.2237934829e+02 3.1076317937e+02 1.2500000000e+02 0.0000e+00 0.0000e+00
<mgrwt>
<rscale>  0 0.46774814E+03</rscale>
<asrwt>0</asrwt>
<pdfrwt beam="1">  1        2 0.59959744E-01 0.46774814E+03</pdfrwt>
<pdfrwt beam="2">  1       -2 0.21591243E-01 0.46774814E+03</pdfrwt>
<totfact> 0.15215898E+03</totfact>
</mgrwt>
</event>
<event>
 8      1 +1.6198320e-01 3.31444500e+02 7.81860800e-03 1.07049900e-01
       -2 -1    0    0    0  501 -0.0000000000e+00 +0.0000000000e+00 +4.7072151446e+01 4.7072151515e+01 2.5500000000e-03 0.0000e+00 -1.0000e+00
        2 -1    0    0  501    0 +0.0000000000e+00 -0.0000000000e+00 -5.8344198349e+02 5.8344198350e+02 2.5500000000e-03 0.0000e+00 1.0000e+00
  1000101  2    1    2    0    0 +3.3347282675e+01 -1.0346473983e+01 -4.6399269387e+02 4.8182807892e+02 1.2509990764e+02 1.1240e+01 0.0000e+00
 -1000101  2    1    2    0    0 -3.3347282675e+01 +1.0346473983e+01 -7.2377138178e+01 1.4868605609e+02 1.2509996946e+02 9.8544e+00 0.0000e+00
       11  1    3    3    0    0 +1.0849383832e-01 +1.0904601229e-02 -2.2749113432e-01 2.5227425670e-01 5.1100000000e-04 0.0000e+00 1.0000e+00
      255  1    3    3    0    0 +3.3238788836e+01 -1.0357378584e+01 -4.6376520273e+02 4.8157580467e+02 1.2500000000e+02 0.0000e+00 0.0000e+00
      -11  1    4    4    0    0 +6.3416329253e-02 +4.5212193344e-02 -1.1885482730e-02 7.8786414214e-02 5.1100000000e-04 0.0000e+00 -1.0000e+00
      255  1    4    4    0    0 -3.3410699004e+01 +1.0301261789e+01 -7.2365252695e+01 1.4860726967e+02 1.2500000000e+02 0.0000e+00 0.0000e+00
<mgrwt>
<rscale>  0 0.33144453E+03</rscale>
<asrwt>0</asrwt>
<pdfrwt beam="1">  1        2 0.89760300E-01 0.33144453E+03</pdfrwt>
<pdfrwt beam="2">  1       -2 0.72418699E-02 0.33144453E+03</pdfrwt>
<totfact> 0.57772155E+03</totfact>
</mgrwt>
</event>
<event>
 8      1 +1.6198320e-01 3.29347600e+02 7.81860800e-03 1.07142600e-01
       -2 -1    0    0    0  501 -0.0000000000e+00 +0.0000000000e+00 +1.6482613382e+02 1.6482613384e+02 2.5500000000e-03 0.0000e+00 -1.0000e+00
        2 -1    0    0  501    0 +0.0000000000e+00 -0.0000000000e+00 -1.6452156504e+02 1.6452156505e+02 2.5500000000e-03 0.0000e+00 1.0000e+00
  1000101  2    1    2    0    0 -6.2471136156e+01 +8.3966765277e+01 +2.2829407665e+01 1.6469442559e+02 1.2510000577e+02 8.2269e+01 0.0000e+00
 -1000101  2    1    2    0    0 +6.2471136156e+01 -8.3966765277e+01 -2.2524838881e+01 1.6465327330e+02 1.2510104523e+02 1.6167e+02 0.0000e+00
       11  1    3    3    0    0 -3.5144647349e-02 +1.7549733383e-01 +4.8693699690e-02 1.8548799942e-01 5.1100000000e-04 0.0000e+00 1.0000e+00
      255  1    3    3    0    0 -6.2435991508e+01 +8.3791267943e+01 +2.2780713965e+01 1.6450893759e+02 1.2500000000e+02 0.0000e+00 0.0000e+00
      -11  1    4    4    0    0 +3.7173603612e-02 -1.3341971632e-01 +5.9504973553e-02 1.5074415580e-01 5.1100000000e-04 0.0000e+00 -1.0000e+00
      255  1    4    4    0    0 +6.2433962552e+01 -8.3833345561e+01 -2.2584343855e+01 1.6450252915e+02 1.2500000000e+02 0.0000e+00 0.0000e+00
<mgrwt>
<rscale>  0 0.32934756E+03</rscale>
<asrwt>0</asrwt>
<pdfrwt beam="1">  1        2 0.25311010E-01 0.32934756E+03</pdfrwt>
<pdfrwt beam="2">  1       -2 0.25357867E-01 0.32934756E+03</pdfrwt>
<totfact> 0.29465432E+03</totfact>
</mgrwt>
</event>
<event>
 8      1 +1.6198320e-01 3.13229600e+02 7.81860800e-03 1.07880800e-01
       -2 -1    0    0    0  501 -0.0000000000e+00 +0.0000000000e+00 +7.0056150413e+01 7.0056150459e+01 2.5500000000e-03 0.0000e+00 -1.0000e+00
        2 -1    0    0  501    0 +0.0000000000e+00 -0.0000000000e+00 -3.5012189960e+02 3.5012189960e+02 2.5500000000e-03 0.0000e+00 1.0000e+00
  1000101  2    1    2    0    0 +2.3264142708e+01 -2.7229042290e+01 -2.3123318714e+01 1.3216404476e+02 1.2509998313e+02 2.5904e+02 0.0000e+00
 -1000101  2    1    2    0    0 -2.3264142708e+01 +2.7229042290e+01 -2.5694243047e+02 2.8801400530e+02 1.2510001436e+02 8.7230e+01 0.0000e+00
       11  1    3    3    0    0 +6.3733453665e-02 +4.8461712454e-02 +3.8921415112e-02 8.9025998255e-02 5.1100000000e-04 0.0000e+00 1.0000e+00
      255  1    3    3    0    0 +2.3200409254e+01 -2.7277504002e+01 -2.3162240129e+01 1.3207501877e+02 1.2500000000e+02 0.0000e+00 0.0000e+00
      -11  1    4    4    0    0 -3.5434415896e-02 +3.9226381310e-02 -3.3333187273e-03 5.2968660126e-02 5.1100000000e-04 0.0000e+00 -1.0000e+00
      255  1    4    4    0    0 -2.3228708292e+01 +2.7189815908e+01 -2.5693909715e+02 2.8796103664e+02 1.2500000000e+02 0.0000e+00 0.0000e+00
<mgrwt>
<rscale>  0 0.31322958E+03</rscale>
<asrwt>0</asrwt>
<pdfrwt beam="1">  1        2 0.53864906E-01 0.31322958E+03</pdfrwt>
<pdfrwt beam="2">  1       -2 0.10777870E-01 0.31322958E+03</pdfrwt>
<totfact> 0.54322262E+03</totfact>
</mgrwt>
</event>
<event>
 8      1 +1.6198320e-01 2.77280900e+02 7.81860800e-03 1.09718300e-01
        2 -1    0    0  501    0 +0.0000000000e+00 +0.0000000000e+00 +3.2728350634e+01 3.2728350733e+01 2.5500000000e-03 0.0000e+00 1.0000e+00
       -2 -1    0    0    0  501 -0.0000000000e+00 -0.0000000000e+00 -5.8729422401e+02 5.8729422402e+02 2.5500000000e-03 0.0000e+00 -1.0000e+00
  1000101  2    1    2    0    0 +5.5341759176e+01 -2.2269991603e+01 -2.6938179399e+02 3.0294434007e+02 1.2510019751e+02 4.0213e+01 0.0000e+00
 -1000101  2    1    2    0    0 -5.5341759176e+01 +2.2269991603e+01 -2.8518407939e+02 3.1707823468e+02 1.2509989981e+02 3.7609e+01 0.0000e+00
       11  1    3    3    0    0 +1.3118510844e-01 -1.4425331878e-02 -1.5020061673e-01 1.9994526567e-01 5.1100000000e-04 0.0000e+00 1.0000e+00
      255  1    3    3    0    0 +5.5210574067e+01 -2.2255566271e+01 -2.6923159337e+02 3.0274439481e+02 1.2500000000e+02 0.0000e+00 0.0000e+00
      -11  1    4    4    0    0 -6.9911216659e-02 +9.9281338028e-02 -4.0541386238e-01 4.2320801413e-01 5.1100000000e-04 0.0000e+00 -1.0000e+00
      255  1    4    4    0    0 -5.5271847959e+01 +2.2170710265e+01 -2.8477866553e+02 3.1665502666e+02 1.2500000000e+02 0.0000e+00 0.0000e+00
<mgrwt>
<rscale>  0 0.27728088E+03</rscale>
<asrwt>0</asrwt>
<pdfrwt beam="1">  1        2 0.50351313E-02 0.27728088E+03</pdfrwt>
<pdfrwt beam="2">  1       -2 0.90352950E-01 0.27728088E+03</pdfrwt>
<totfact> 0.16860188E+03</totfact>
</mgrwt>
</event>
<event>
 8      1 +1.6198320e-01 4.07892900e+02 7.81860800e-03 1.04108000e-01
       -2 -1    0    0    0  501 -0.0000000000e+00 +0.0000000000e+00 +3.9142039111e+02 3.9142039112e+02 2.5500000000e-03 0.0000e+00 -1.0000e+00
        2 -1    0    0  501    0 +0.0000000000e+00 -0.0000000000e+00 -1.0626464879e+02 1.0626464882e+02 2.5500000000e-03 0.0000e+00 1.0000e+00
  1000101  2    1    2    0    0 +1.1576843940e+01 +6.1493020970e+01 +3.2367140141e+02 3.5260259009e+02 1.2509994207e+02 6.9536e+01 0.0000e+00
 -1000101  2    1    2    0    0 -1.1576843940e+01 -6.1493020970e+01 -3.8515659083e+01 1.4508244985e+02 1.2510014514e+02 1.3301e+02 0.0000e+00
       11  1    3    3    0    0 -5.5181085935e-02 +7.4290092526e-02 +8.9485882431e-02 1.2873210310e-01 5.1100000000e-04 0.0000e+00 1.0000e+00
      255  1    3    3    0    0 +1.1632025026e+01 +6.1418730877e+01 +3.2358191553e+02 3.5247385799e+02 1.2500000000e+02 0.0000e+00 0.0000e+00
      -11  1    4    4    0    0 +7.8924749352e-02 -4.2506313318e-02 -7.7781449599e-02 1.1868495168e-01 5.1100000000e-04 0.0000e+00 -1.0000e+00
      255  1    4    4    0    0 -1.1655768689e+01 -6.1450514656e+01 -3.8437877633e+01 1.4496376489e+02 1.2500000000e+02 0.0000e+00 0.0000e+00
<mgrwt>
<rscale>  0 0.40789288E+03</rscale>
<asrwt>0</asrwt>
<pdfrwt beam="1">  1        2 0.16348408E-01 0.40789288E+03</pdfrwt>
<pdfrwt beam="2">  1       -2 0.60218521E-01 0.40789288E+03</pdfrwt>
<totfact> 0.92957389E+02</totfact>
</mgrwt>
</event>
<event>
 8      1 +1.6198320e-01 3.25901700e+02 7.81860800e-03 1.07296500e-01
       -2 -1    0    0    0  501 -0.0000000000e+00 +0.0000000000e+00 +2.0308177889e+02 2.0308177891e+02 2.5500000000e-03 0.0000e+00 -1.0000e+00
        2 -1    0    0  501    0 +0.0000000000e+00 -0.0000000000e+00 -1.3075021325e+02 1.3075021327e+02 2.5500000000e-03 0.0000e+00 1.0000e+00
  1000101  2    1    2    0    0 -7.0495358181e+01 +6.7935500391e+01 +7.3355006477e+01 1.7497376124e+02 1.2510008956e+02 2.6596e+01 0.0000e+00
 -1000101  2    1    2    0    0 +7.0495358181e+01 -6.7935500391e+01 -1.0234408306e+00 1.5885823094e+02 1.2510020930e+02 7.2566e+01 0.0000e+00
       11  1    3    3    0    0 -1.2966407021e-01 -5.8438677118e-03 +9.7727587306e-02 1.6247419590e-01 5.1100000000e-04 0.0000e+00 1.0000e+00
      255  1    3    3    0    0 -7.0365694111e+01 +6.7941344259e+01 +7.3257278890e+01 1.7481128704e+02 1.2500000000e+02 0.0000e+00 0.0000e+00
      -11  1    4    4    0    0 +1.1060798364e-01 -7.7711672698e-03 +6.9461772888e-02 1.3084233298e-01 5.1100000000e-04 0.0000e+00 -1.0000e+00
      255  1    4    4    0    0 +7.0384750198e+01 -6.7927729224e+01 -1.0929026035e+00 1.5872738861e+02 1.2500000000e+02 0.0000e+00 0.0000e+00
<mgrwt>
<rscale>  0 0.32590174E+03</rscale>
<asrwt>0</asrwt>
<pdfrwt beam="1">  1        2 0.20115417E-01 0.32590174E+03</pdfrwt>
<pdfrwt beam="2">  1       -2 0.31243351E-01 0.32590174E+03</pdfrwt>
<totfact> 0.26239050E+03</totfact>
</mgrwt>
</event>
<event>
 8      1 +1.6198320e-01 2.86178500e+02 7.81860800e-03 1.09236100e-01
       -2 -1    0    0    0  501 -0.0000000000e+00 +0.0000000000e+00 +1.5489987187e+01 1.5489987397e+01 2.5500000000e-03 0.0000e+00 1.0000e+00
        2 -1    0    0  501    0 +0.0000000000e+00 -0.0000000000e+00 -1.3217912635e+03 1.3217912635e+03 2.5500000000e-03 0.0000e+00 -1.0000e+00
  1000101  2    1    2    0    0 +3.7759054080e+01 +9.7094823675e+00 -9.2177103682e+02 9.3103806441e+02 1.2510001138e+02 6.2318e+01 0.0000e+00
 -1000101  2    1    2    0    0 -3.7759054080e+01 -9.7094823675e+00 -3.8453023952e+02 4.0624318651e+02 1.2509996512e+02 1.9633e+01 0.0000e+00
       11  1    3    3    0    0 +9.6998508548e-02 -3.3738337717e-02 -3.9724277541e-01 4.1030363127e-01 5.1100000000e-04 0.0000e+00 1.0000e+00
      255  1    3    3    0    0 +3.7662055571e+01 +9.7432207052e+00 -9.2137379405e+02 9.3062776078e+02 1.2500000000e+02 0.0000e+00 0.0000e+00
      -11  1    4    4    0    0 +4.2885087347e-02 -5.2378686150e-02 -4.2411652622e-01 4.2948544377e-01 5.1100000000e-04 0.0000e+00 -1.0000e+00
      255  1    4    4    0    0 -3.7801939167e+01 -9.6571036813e+00 -3.8410612299e+02 4.0581370107e+02 1.2500000000e+02 0.0000e+00 0.0000e+00
<mgrwt>
<rscale>  0 0.28617847E+03</rscale>
<asrwt>0</asrwt>
<pdfrwt beam="1">  1        2 0.20335241E+00 0.28617847E+03</pdfrwt>
<pdfrwt beam="2">  1       -2 0.23830760E-02 0.28617847E+03</pdfrwt>
<totfact> 0.10185989E+04</totfact>
</mgrwt>
</event>
<event>
 8      1 +1.6198320e-01 3.14003700e+02 7.81860800e-03 1.07844300e-01
       -2 -1    0    0    0  501 -0.0000000000e+00 +0.0000000000e+00 +8.5210694988e+00 8.5210698804e+00 2.5500000000e-03 0.0000e+00 -1.0000e+00
        2 -1    0    0  501    0 +0.0000000000e+00 -0.0000000000e+00 -2.8927795993e+03 2.8927795993e+03 2.5500000000e-03 0.0000e+00 1.0000e+00
  1000101  2    1    2    0    0 -3.9120216341e+01 +5.9216406116e+01 -8.6048458319e+02 8.7242216850e+02 1.2509895331e+02 5.7020e+01 0.0000e+00
 -1000101  2    1    2    0    0 +3.9120216341e+01 -5.9216406116e+01 -2.0237739466e+03 2.0288785006e+03 1.2509999771e+02 5.6347e+01 0.0000e+00
       11  1    3    3    0    0 -2.9797042571e-02 -5.1549594477e-02 -6.9148582921e-01 6.9404476625e-01 5.1100000000e-04 0.0000e+00 1.0000e+00
      255  1    3    3    0    0 -3.9090419299e+01 +5.9267955710e+01 -8.5979309736e+02 8.7172812374e+02 1.2500000000e+02 0.0000e+00 0.0000e+00
      -11  1    4    4    0    0 +7.9936366360e-02 +2.5388484720e-02 -6.6088145331e-01 6.6618237313e-01 5.1100000000e-04 0.0000e+00 -1.0000e+00
      255  1    4    4    0    0 +3.9040279975e+01 -5.9241794601e+01 -2.0231130651e+03 2.0282123183e+03 1.2500000000e+02 0.0000e+00 0.0000e+00
<mgrwt>
<rscale>  0 0.31400367E+03</rscale>
<asrwt>0</asrwt>
<pdfrwt beam="1">  1        2 0.44504223E+00 0.31400367E+03</pdfrwt>
<pdfrwt beam="2">  1       -2 0.13109361E-02 0.31400367E+03</pdfrwt>
<totfact> 0.34505871E+03</totfact>
</mgrwt>
</event>
<event>
 8      1 +1.6198320e-01 3.78205700e+02 7.81860800e-03 1.05159900e-01
       -2 -1    0    0    0  501 -0.0000000000e+00 +0.0000000000e+00 +7.8787438732e+01 7.8787438774e+01 2.5500000000e-03 0.0000e+00 -1.0000e+00
        2 -1    0    0  501    0 +0.0000000000e+00 -0.0000000000e+00 -4.5387798140e+02 4.5387798140e+02 2.5500000000e-03 0.0000e+00 1.0000e+00
  1000101  2    1    2    0    0 -1.6186933842e+01 +1.4067097129e+02 -1.9841252788e+02 2.7398517592e+02 1.2509998566e+02 7.6143e+01 0.0000e+00
 -1000101  2    1    2    0    0 +1.6186933842e+01 -1.4067097129e+02 -1.7667801478e+02 2.5868024426e+02 1.2509999549e+02 2.5365e+01 0.0000e+00
       11  1    3    3    0    0 +2.5623343692e-02 +1.8502909884e-01 -3.2231384021e-01 3.7253026168e-01 5.1100000000e-04 0.0000e+00 1.0000e+00
      255  1    3    3    0    0 -1.6212557186e+01 +1.4048594219e+02 -1.9809021404e+02 2.7361264566e+02 1.2500000000e+02 0.0000e+00 0.0000e+00
      -11  1    4    4    0    0 +6.5798959596e-02 -2.2299169991e-01 -2.9099605403e-01 3.7246981877e-01 5.1100000000e-04 0.0000e+00 -1.0000e+00
      255  1    4    4    0    0 +1.6121134882e+01 -1.4044797959e+02 -1.7638701873e+02 2.5830777444e+02 1.2500000000e+02 0.0000e+00 0.0000e+00
<mgrwt>
<rscale>  0 0.37820568E+03</rscale>
<asrwt>0</asrwt>
<pdfrwt beam="1">  1        2 0.69827380E-01 0.37820568E+03</pdfrwt>
<pdfrwt beam="2">  1       -2 0.12121145E-01 0.37820568E+03</pdfrwt>
<totfact> 0.33931497E+03</totfact>
</mgrwt>
</event>
<event>
 8      1 +1.6198320e-01 3.26207700e+02 7.81860800e-03 1.07282700e-01
       -2 -1    0    0    0  501 -0.0000000000e+00 +0.0000000000e+00 +5.6243425403e+01 5.6243425461e+01 2.5500000000e-03 0.0000e+00 -1.0000e+00
        2 -1    0    0  501    0 +0.0000000000e+00 -0.0000000000e+00 -4.7299525425e+02 4.7299525426e+02 2.5500000000e-03 0.0000e+00 1.0000e+00
  1000101  2    1    2    0    0 +2.5780938540e+01 -1.0853409840e+01 -3.7199238922e+02 3.9346004340e+02 1.2510001926e+02 2.5226e+02 0.0000e+00
 -1000101  2    1    2    0    0 -2.5780938540e+01 +1.0853409840e+01 -4.4759439629e+01 1.3577863632e+02 1.2509986949e+02 9.5044e+01 0.0000e+00
       11  1    3    3    0    0 -1.4195922809e-02 -2.7563035977e-02 -5.6388930621e-01 5.6474122919e-01 5.1100000000e-04 0.0000e+00 1.0000e+00
      255  1    3    3    0    0 +2.5795134463e+01 -1.0825846804e+01 -3.7142849992e+02 3.9289530218e+02 1.2500000000e+02 0.0000e+00 0.0000e+00
      -11  1    4    4    0    0 +1.4282114157e-02 -3.7362612357e-02 +5.5123127678e-02 6.8108471668e-02 5.1100000000e-04 0.0000e+00 -1.0000e+00
      255  1    4    4    0    0 -2.5795220655e+01 +1.0890772453e+01 -4.4814562756e+01 1.3571052785e+02 1.2500000000e+02 0.0000e+00 0.0000e+00
<mgrwt>
<rscale>  0 0.32620775E+03</rscale>
<asrwt>0</asrwt>
<pdfrwt beam="1">  1        2 0.72768498E-01 0.32620775E+03</pdfrwt>
<pdfrwt beam="2">  1       -2 0.86528350E-02 0.32620775E+03</pdfrwt>
<totfact> 0.55455134E+03</totfact>
</mgrwt>
</event>
<event>
 8      1 +1.6198320e-01 2.61649300e+02 7.81860800e-03 1.10615600e-01
       -2 -1    0    0    0  501 -0.0000000000e+00 +0.0000000000e+00 +7.0601520225e+01 7.0601520271e+01 2.5500000000e-03 0.0000e+00 -1.0000e+00
        2 -1    0    0  501    0 +0.0000000000e+00 -0.0000000000e+00 -2.4241820175e+02 2.4241820176e+02 2.5500000000e-03 0.0000e+00 1.0000e+00
  1000101  2    1    2    0    0 +2.7785775623e+01 +1.0979714497e+01 -1.1453225216e+02 1.7222153190e+02 1.2510002322e+02 2.9607e+01 0.0000e+00
 -1000101  2    1    2    0    0 -2.7785775623e+01 -1.0979714497e+01 -5.7284429365e+01 1.4079819013e+02 1.2510004412e+02 4.4007e+01 0.0000e+00
       11  1    3    3    0    0 -3.5438722290e-02 -4.9412213324e-03 -1.8876910112e-01 1.9213108381e-01 5.1100000000e-04 0.0000e+00 1.0000e+00
      255  1    3    3    0    0 +2.7821214345e+01 +1.0984655718e+01 -1.1434348306e+02 1.7202940082e+02 1.2500000000e+02 0.0000e+00 0.0000e+00
      -11  1    4    4    0    0 +7.9523381631e-04 +5.8221817261e-02 -1.1918326841e-01 1.3264737084e-01 5.1100000000e-04 0.0000e+00 -1.0000e+00
      255  1    4    4    0    0 -2.7786570857e+01 -1.1037936314e+01 -5.7165246097e+01 1.4066554276e+02 1.2500000000e+02 0.0000e+00 0.0000e+00
<mgrwt>
<rscale>  0 0.26164933E+03</rscale>
<asrwt>0</asrwt>
<pdfrwt beam="1">  1        2 0.37295108E-01 0.26164933E+03</pdfrwt>
<pdfrwt beam="2">  1       -2 0.10861772E-01 0.26164933E+03</pdfrwt>
<totfact> 0.79276217E+03</totfact>
</mgrwt>
</event>
<event>
 8      1 +1.6198320e-01 3.11743600e+02 7.81860800e-03 1.07951300e-01
       -2 -1    0    0    0  501 -0.0000000000e+00 +0.0000000000e+00 +8.2192762854e+01 8.2192762894e+01 2.5500000000e-03 0.0000e+00 -1.0000e+00
        2 -1    0    0  501    0 +0.0000000000e+00 -0.0000000000e+00 -2.9559808009e+02 2.9559808010e+02 2.5500000000e-03 0.0000e+00 1.0000e+00
  1000101  2    1    2    0    0 +7.5088498415e+00 -6.7892943777e+01 -3.0247707033e+01 1.4570780772e+02 1.2509998724e+02 2.2343e+00 0.0000e+00
 -1000101  2    1    2    0    0 -7.5088498415e+00 +6.7892943777e+01 -1.8315761020e+02 2.3208303528e+02 1.2509992186e+02 9.9256e+01 0.0000e+00
       11  1    3    3    0    0 -6.2249708126e-02 -1.3514665211e-01 -3.4228866662e-02 1.5268110614e-01 5.1100000000e-04 0.0000e+00 1.0000e+00
      255  1    3    3    0    0 +7.5710995496e+00 -6.7757797125e+01 -3.0213478167e+01 1.4555512661e+02 1.2500000000e+02 0.0000e+00 0.0000e+00
      -11  1    4    4    0    0 +1.9672197325e-02 +6.1859302319e-02 +7.5379970477e-03 6.5350219216e-02 5.1100000000e-04 0.0000e+00 -1.0000e+00
      255  1    4    4    0    0 -7.5285220388e+00 +6.7831084475e+01 -1.8316514820e+02 2.3201768506e+02 1.2500000000e+02 0.0000e+00 0.0000e+00
<mgrwt>
<rscale>  0 0.31174363E+03</rscale>
<asrwt>0</asrwt>
<pdfrwt beam="1">  1        2 0.45476627E-01 0.31174363E+03</pdfrwt>
<pdfrwt beam="2">  1       -2 0.12645041E-01 0.31174363E+03</pdfrwt>
<totfact> 0.50384886E+03</totfact>
</mgrwt>
</event>
<event>
 8      1 +1.6198320e-01 5.69185900e+02 7.81860800e-03 9.97148200e-02
       -2 -1    0    0    0  501 -0.0000000000e+00 +0.0000000000e+00 +1.6968719456e+01 1.6968719647e+01 2.5500000000e-03 0.0000e+00 -1.0000e+00
        2 -1    0    0  501    0 +0.0000000000e+00 -0.0000000000e+00 -4.7730848304e+03 4.7730848304e+03 2.5500000000e-03 0.0000e+00 1.0000e+00
  1000101  2    1    2    0    0 -4.3229265632e+01 +3.7161420573e+01 -4.4751092245e+03 4.4772203815e+03 1.2510009277e+02 6.8276e+01 0.0000e+00
 -1000101  2    1    2    0    0 +4.3229265632e+01 -3.7161420573e+01 -2.8100688646e+02 3.1283316851e+02 1.2509988208e+02 4.0091e+00 0.0000e+00
       11  1    3    3    0    0 -1.2609474977e-01 +8.7409706897e-02 -4.4832878645e+00 4.4859124690e+00 5.1100000000e-04 0.0000e+00 1.0000e+00
      255  1    3    3    0    0 -4.3103170882e+01 +3.7074010866e+01 -4.4706259366e+03 4.4727344690e+03 1.2500000000e+02 0.0000e+00 0.0000e+00
      -11  1    4    4    0    0 -6.9430613914e-02 -8.2628572217e-03 -1.1443647590e-01 1.3410761759e-01 5.1100000000e-04 0.0000e+00 -1.0000e+00
      255  1    4    4    0    0 +4.3298696246e+01 -3.7153157716e+01 -2.8089244999e+02 3.1269906089e+02 1.2500000000e+02 0.0000e+00 0.0000e+00
<mgrwt>
<rscale>  0 0.56918587E+03</rscale>
<asrwt>0</asrwt>
<pdfrwt beam="1">  1        2 0.73431967E+00 0.56918587E+03</pdfrwt>
<pdfrwt beam="2">  1       -2 0.26105760E-02 0.56918587E+03</pdfrwt>
<totfact> 0.42824093E+01</totfact>
</mgrwt>
</event>
<event>
 8      1 +1.6198320e-01 2.99264600e+02 7.81860800e-03 1.08560900e-01
        2 -1    0    0  501    0 +0.0000000000e+00 +0.0000000000e+00 +2.0858996276e+02 2.0858996277e+02 2.5500000000e-03 0.0000e+00 1.0000e+00
       -2 -1    0    0    0  501 -0.0000000000e+00 -0.0000000000e+00 -1.0733892719e+02 1.0733892722e+02 2.5500000000e-03 0.0000e+00 -1.0000e+00
  1000101  2    1    2    0    0 -5.1484603878e+01 +6.2151712334e+01 +6.6507147299e+01 1.6305426991e+02 1.2509993809e+02 3.1774e+02 0.0000e+00
 -1000101  2    1    2    0    0 +5.1484603878e+01 -6.2151712334e+01 +3.4743888272e+01 1.5287462009e+02 1.2510000764e+02 2.4855e+02 0.0000e+00
       11  1    3    3    0    0 +2.7936846380e-02 +1.1782782425e-01 +8.1578297464e-02 1.4601076430e-01 5.1100000000e-04 0.0000e+00 1.0000e+00
      255  1    3    3    0    0 -5.1512540725e+01 +6.2033884510e+01 +6.6425569001e+01 1.6290825914e+02 1.2500000000e+02 0.0000e+00 0.0000e+00
      -11  1    4    4    0    0 +1.0614105241e-01 -1.1015721115e-01 -2.9114353683e-02 1.5571910894e-01 5.1100000000e-04 0.0000e+00 -1.0000e+00
      255  1    4    4    0    0 +5.1378462826e+01 -6.2041555123e+01 +3.4773002625e+01 1.5271890098e+02 1.2500000000e+02 0.0000e+00 0.0000e+00
<mgrwt>
<rscale>  0 0.29926458E+03</rscale>
<asrwt>0</asrwt>
<pdfrwt beam="1">  1        2 0.32090764E-01 0.29926458E+03</pdfrwt>
<pdfrwt beam="2">  1       -2 0.16513681E-01 0.29926458E+03</pdfrwt>
<totfact> 0.47297696E+03</totfact>
</mgrwt>
</event>
<event>
 8      1 +1.6198320e-01 4.48066700e+02 7.81860800e-03 1.02830000e-01
       -1 -1    0    0    0  501 -0.0000000000e+00 +0.0000000000e+00 +5.7926454697e+01 5.7926454917e+01 5.0400000000e-03 0.0000e+00 -1.0000e+00
        1 -1    0    0  501    0 +0.0000000000e+00 -0.0000000000e+00 -8.6645971856e+02 8.6645971858e+02 5.0400000000e-03 0.0000e+00 1.0000e+00
  1000101  2    1    2    0    0 -1.0142878101e+02 +6.0018983052e+01 -1.0779679281e+02 2.0287962727e+02 1.2509963501e+02 1.6070e+02 0.0000e+00
 -1000101  2    1    2    0    0 +1.0142878101e+02 -6.0018983052e+01 -7.0073647106e+02 7.2150654622e+02 1.2510003369e+02 3.6064e+00 0.0000e+00
       11  1    3    3    0    0 -1.2548340899e-01 -2.5391720562e-02 -1.4612318342e-01 1.9427576087e-01 5.1100000000e-04 0.0000e+00 1.0000e+00
      255  1    3    3    0    0 -1.0130329760e+02 +6.0044374773e+01 -1.0765066963e+02 2.0268535151e+02 1.2500000000e+02 0.0000e+00 0.0000e+00
      -11  1    4    4    0    0 -3.6999587767e-02 -6.2743560838e-02 -3.0332506995e-01 3.1194884693e-01 5.1100000000e-04 0.0000e+00 -1.0000e+00
      255  1    4    4    0    0 +1.0146578060e+02 -5.9956239491e+01 -7.0043314599e+02 7.2119459737e+02 1.2500000000e+02 0.0000e+00 0.0000e+00
<mgrwt>
<rscale>  0 0.44806669E+03</rscale>
<asrwt>0</asrwt>
<pdfrwt beam="1">  1        1 0.13330149E+00 0.44806669E+03</pdfrwt>
<pdfrwt beam="2">  1       -1 0.89117629E-02 0.44806669E+03</pdfrwt>
<totfact> 0.14805793E+03</totfact>
</mgrwt>
</event>
<event>
 8      1 +1.6198320e-01 3.33858900e+02 7.81860800e-03 1.06944200e-01
        1 -1    0    0  501    0 +0.0000000000e+00 +0.0000000000e+00 +8.0162168847e+01 8.0162169006e+01 5.0400000000e-03 0.0000e+00 1.0000e+00
       -1 -1    0    0    0  501 -0.0000000000e+00 -0.0000000000e+00 -3.4761342945e+02 3.4761342948e+02 5.0400000000e-03 0.0000e+00 -1.0000e+00
  1000101  2    1    2    0    0 -7.8211882110e+01 -3.2464413623e+01 -2.2472828795e+02 2.7078376276e+02 1.2509998447e+02 7.2858e+01 0.0000e+00
 -1000101  2    1    2    0    0 +7.8211882110e+01 +3.2464413623e+01 -4.2722972648e+01 1.5699183573e+02 1.2510054931e+02 9.3824e+00 0.0000e+00
       11  1    3    3    0    0 -7.4943454190e-03 +5.7536903848e-02 -1.9362812522e-01 2.0213553006e-01 5.1100000000e-04 0.0000e+00 1.0000e+00
      255  1    3    3    0    0 -7.8204387764e+01 -3.2521950527e+01 -2.2453465983e+02 2.7058162723e+02 1.2500000000e+02 0.0000e+00 0.0000e+00
      -11  1    4    4    0    0 -3.4818994050e-02 +6.9345196212e-02 -4.3334657005e-02 8.8877849905e-02 5.1100000000e-04 0.0000e+00 -1.0000e+00
      255  1    4    4    0    0 +7.8246701104e+01 +3.2395068427e+01 -4.2679637991e+01 1.5690295788e+02 1.2500000000e+02 0.0000e+00 0.0000e+00
<mgrwt>
<rscale>  0 0.33385893E+03</rscale>
<asrwt>0</asrwt>
<pdfrwt beam="1">  1        1 0.12332642E-01 0.33385893E+03</pdfrwt>
<pdfrwt beam="2">  1       -1 0.53478988E-01 0.33385893E+03</pdfrwt>
<totfact> 0.17563901E+03</totfact>
</mgrwt>
</event>
<event>
 8      1 +1.6198320e-01 3.10430000e+02 7.81860800e-03 1.08014000e-01
       -2 -1    0    0    0  501 -0.0000000000e+00 +0.0000000000e+00 +1.7410584643e+01 1.7410584830e+01 2.5500000000e-03 0.0000e+00 -1.0000e+00
        2 -1    0    0  501    0 +0.0000000000e+00 -0.0000000000e+00 -1.3837387554e+03 1.3837387554e+03 2.5500000000e-03 0.0000e+00 1.0000e+00
  1000101  2    1    2    0    0 +1.8894703013e+01 +1.6028170360e+01 -1.0825017682e+03 1.0899880749e+03 1.2510001274e+02 2.3143e+02 0.0000e+00
 -1000101  2    1    2    0    0 -1.8894703013e+01 -1.6028170360e+01 -2.8382640249e+02 3.1116126528e+02 1.2509993690e+02 1.2210e+02 0.0000e+00
       11  1    3    3    0    0 -6.5439790729e-02 -1.7241454445e-02 -1.1881269079e+00 1.1900527065e+00 5.1100000000e-04 0.0000e+00 1.0000e+00
      255  1    3    3    0    0 +1.8960142804e+01 +1.6045411815e+01 -1.0813136413e+03 1.0887980222e+03 1.2500000000e+02 0.0000e+00 0.0000e+00
      -11  1    4    4    0    0 +5.5368036897e-02 +3.1773376482e-02 -5.1089183691e-02 8.1765107313e-02 5.1100000000e-04 0.0000e+00 -1.0000e+00
      255  1    4    4    0    0 -1.8950071050e+01 -1.6059943737e+01 -2.8377531330e+02 3.1107950017e+02 1.2500000000e+02 0.0000e+00 0.0000e+00
<mgrwt>
<rscale>  0 0.31043003E+03</rscale>
<asrwt>0</asrwt>
<pdfrwt beam="1">  1        2 0.21288280E+00 0.31043003E+03</pdfrwt>
<pdfrwt beam="2">  1       -2 0.26785526E-02 0.31043003E+03</pdfrwt>
<totfact> 0.79298615E+03</totfact>
</mgrwt>
</event>
<event>
 8      1 +1.6198320e-01 4.06435200e+02 7.81860800e-03 1.04157400e-01
        1 -1    0    0  501    0 +0.0000000000e+00 +0.0000000000e+00 +1.1502964838e+03 1.1502964838e+03 5.0400000000e-03 0.0000e+00 1.0000e+00
       -1 -1    0    0    0  501 -0.0000000000e+00 -0.0000000000e+00 -3.5901522218e+01 3.5901522572e+01 5.0400000000e-03 0.0000e+00 -1.0000e+00
  1000101  2    1    2    0    0 -1.5545411916e+01 -1.3785824056e+02 +3.2369896477e+02 3.7373465736e+02 1.2510003996e+02 1.5021e+02 0.0000e+00
 -1000101  2    1    2    0    0 +1.5545411916e+01 +1.3785824056e+02 +7.9069599680e+02 8.1246334901e+02 1.2509987933e+02 1.0340e+01 0.0000e+00
       11  1    3    3    0    0 -3.3739915919e-02 -2.4413437890e-01 +3.4988485439e-01 4.2797155202e-01 5.1100000000e-04 0.0000e+00 1.0000e+00
      255  1    3    3    0    0 -1.5511672000e+01 -1.3761410618e+02 +3.2334907992e+02 3.7330668581e+02 1.2500000000e+02 0.0000e+00 0.0000e+00
      -11  1    4    4    0    0 +2.2517515490e-02 +1.6422272168e-01 +4.0067460672e-01 4.3360874346e-01 5.1100000000e-04 0.0000e+00 -1.0000e+00
      255  1    4    4    0    0 +1.5522894401e+01 +1.3769401783e+02 +7.9029532220e+02 8.1202974027e+02 1.2500000000e+02 0.0000e+00 0.0000e+00
<mgrwt>
<rscale>  0 0.40643521E+03</rscale>
<asrwt>0</asrwt>
<pdfrwt beam="1">  1        1 0.17696869E+00 0.40643521E+03</pdfrwt>
<pdfrwt beam="2">  1       -1 0.55233112E-02 0.40643521E+03</pdfrwt>
<totfact> 0.18797686E+03</totfact>
</mgrwt>
</event>
<event>
 8      1 +1.6198320e-01 4.24692500e+02 7.81860800e-03 1.03555000e-01
       -2 -1    0    0    0  501 -0.0000000000e+00 +0.0000000000e+00 +3.3283725949e+02 3.3283725950e+02 2.5500000000e-03 0.0000e+00 -1.0000e+00
        2 -1    0    0  501    0 +0.0000000000e+00 -0.0000000000e+00 -1.3547441923e+02 1.3547441926e+02 2.5500000000e-03 0.0000e+00 1.0000e+00
  1000101  2    1    2    0    0 -5.8948689160e+01 +5.3196610160e+01 -6.9046497268e+01 1.6346944682e+02 1.2510001588e+02 1.7813e+02 0.0000e+00
 -1000101  2    1    2    0    0 +5.8948689160e+01 -5.3196610160e+01 +2.6640933752e+02 3.0484223193e+02 1.2510005581e+02 9.4337e+01 0.0000e+00
       11  1    3    3    0    0 -2.5840790038e-02 -3.5493836212e-02 -1.1452049170e-01 1.2264894203e-01 5.1100000000e-04 0.0000e+00 1.0000e+00
      255  1    3    3    0    0 -5.8922848370e+01 +5.3232103996e+01 -6.8931976776e+01 1.6334679788e+02 1.2500000000e+02 0.0000e+00 0.0000e+00
      -11  1    4    4    0    0 +4.0740749782e-02 -1.0396204211e-01 +4.1482373662e-01 4.2958923226e-01 5.1100000000e-04 0.0000e+00 -1.0000e+00
      255  1    4    4    0    0 +5.8907948410e+01 -5.3092648118e+01 +2.6599451379e+02 3.0441264270e+02 1.2500000000e+02 0.0000e+00 0.0000e+00
<mgrwt>
<rscale>  0 0.42469252E+03</rscale>
<asrwt>0</asrwt>
<pdfrwt beam="1">  1        2 0.20842219E-01 0.42469252E+03</pdfrwt>
<pdfrwt beam="2">  1       -2 0.51205732E-01 0.42469252E+03</pdfrwt>
<totfact> 0.97635193E+02</totfact>
</mgrwt>
</event>
<event>
 8      1 +1.6198320e-01 4.04815200e+02 7.81860800e-03 1.04212500e-01
       -4 -1    0    0    0  501 -0.0000000000e+00 +0.0000000000e+00 +5.2227275236e+01 5.2242714119e+01 1.2700000000e+00 0.0000e+00 -1.0000e+00
        4 -1    0    0  501    0 +0.0000000000e+00 -0.0000000000e+00 -7.8430182757e+02 7.8430285581e+02 1.2700000000e+00 0.0000e+00 1.0000e+00
  1000101  2    1    2    0    0 -1.3219670750e+02 +6.2885346240e+00 -5.4858327395e+02 5.7802174468e+02 1.2510001486e+02 1.2547e+02 0.0000e+00
 -1000101  2    1    2    0    0 +1.3219670750e+02 -6.2885346240e+00 -1.8349127838e+02 2.5852382525e+02 1.2509997538e+02 4.2523e+01 0.0000e+00
       11  1    3    3    0    0 -1.0563841131e-01 +9.7583621954e-02 -3.2766095907e-01 3.5783236639e-01 5.1100000000e-04 0.0000e+00 1.0000e+00
      255  1    3    3    0    0 -1.3209106908e+02 +6.1909510021e+00 -5.4825561299e+02 5.7766391231e+02 1.2500000000e+02 0.0000e+00 0.0000e+00
      -11  1    4    4    0    0 +1.7320823410e-01 +5.2630521446e-02 -1.0083091556e-01 2.0721534403e-01 5.1100000000e-04 0.0000e+00 -1.0000e+00
      255  1    4    4    0    0 +1.3202349926e+02 -6.3411651455e+00 -1.8339044747e+02 2.5831660991e+02 1.2500000000e+02 0.0000e+00 0.0000e+00
<mgrwt>
<rscale>  0 0.40481519E+03</rscale>
<asrwt>0</asrwt>
<pdfrwt beam="1">  1        4 0.12066308E+00 0.40481519E+03</pdfrwt>
<pdfrwt beam="2">  1       -4 0.80362327E-02 0.40481519E+03</pdfrwt>
<totfact> 0.11552785E+02</totfact>
</mgrwt>
</event>
<event>
 8      1 +1.6198320e-01 3.74845900e+02 7.81860800e-03 1.05285500e-01
        2 -1    0    0  501    0 +0.0000000000e+00 +0.0000000000e+00 +2.5528859305e+02 2.5528859307e+02 2.5500000000e-03 0.0000e+00 1.0000e+00
       -2 -1    0    0    0  501 -0.0000000000e+00 -0.0000000000e+00 -1.3759860264e+02 1.3759860267e+02 2.5500000000e-03 0.0000e+00 -1.0000e+00
  1000101  2    1    2    0    0 -1.2982265672e+02 +2.5383836310e+01 +1.2216750777e+01 1.8247608704e+02 1.2510000798e+02 2.6993e+01 0.0000e+00
 -1000101  2    1    2    0    0 +1.2982265672e+02 -2.5383836310e+01 +1.0547323963e+02 2.1041110870e+02 1.2509983629e+02 2.3499e+01 0.0000e+00
       11  1    3    3    0    0 -2.0938696756e-01 -1.7470640890e-03 +7.4481309683e-02 2.2224689206e-01 5.1100000000e-04 0.0000e+00 1.0000e+00
      255  1    3    3    0    0 -1.2961326975e+02 +2.5385583374e+01 +1.2142269467e+01 1.8225384014e+02 1.2500000000e+02 0.0000e+00 0.0000e+00
      -11  1    4    4    0    0 +4.7938665112e-02 +4.6048045347e-02 +1.3638586053e-01 1.5172311019e-01 5.1100000000e-04 0.0000e+00 -1.0000e+00
      255  1    4    4    0    0 +1.2977471806e+02 -2.5429884356e+01 +1.0533685377e+02 2.1025938559e+02 1.2500000000e+02 0.0000e+00 0.0000e+00
<mgrwt>
<rscale>  0 0.37484585E+03</rscale>
<asrwt>0</asrwt>
<pdfrwt beam="1">  1        2 0.39275168E-01 0.37484585E+03</pdfrwt>
<pdfrwt beam="2">  1       -2 0.21169016E-01 0.37484585E+03</pdfrwt>
<totfact> 0.24967759E+03</totfact>
</mgrwt>
</event>
<event>
 8      1 +1.6198320e-01 3.69015700e+02 7.81860800e-03 1.05507000e-01
       -2 -1    0    0    0  501 -0.0000000000e+00 +0.0000000000e+00 +2.1621773712e+02 2.1621773714e+02 2.5500000000e-03 0.0000e+00 -1.0000e+00
        2 -1    0    0  501    0 +0.0000000000e+00 -0.0000000000e+00 -1.5744847560e+02 1.5744847562e+02 2.5500000000e-03 0.0000e+00 1.0000e+00
  1000101  2    1    2    0    0 -1.1148949724e+02 +3.6544399931e+01 -3.9500261947e+01 1.7599906738e+02 1.2509995949e+02 1.4584e+02 0.0000e+00
 -1000101  2    1    2    0    0 +1.1148949724e+02 -3.6544399931e+01 +9.8269523475e+01 1.9766714537e+02 1.2509995985e+02 1.5665e+02 0.0000e+00
       11  1    3    3    0    0 +3.9659307285e-02 -1.7460543272e-02 -7.9582686354e-03 4.4060485552e-02 5.1100000000e-04 0.0000e+00 1.0000e+00
      255  1    3    3    0    0 -1.1152915655e+02 +3.6561860475e+01 -3.9492303679e+01 1.7595500690e+02 1.2500000000e+02 0.0000e+00 0.0000e+00
      -11  1    4    4    0    0 +1.4338828952e-01 -1.5026741330e-04 +1.9186225851e-01 2.3952371806e-01 5.1100000000e-04 0.0000e+00 -1.0000e+00
      255  1    4    4    0    0 +1.1134610895e+02 -3.6544249664e+01 +9.8077661216e+01 1.9742762165e+02 1.2500000000e+02 0.0000e+00 0.0000e+00
<mgrwt>
<rscale>  0 0.36901573E+03</rscale>
<asrwt>0</asrwt>
<pdfrwt beam="1">  1        2 0.24222843E-01 0.36901573E+03</pdfrwt>
<pdfrwt beam="2">  1       -2 0.33264267E-01 0.36901573E+03</pdfrwt>
<totfact> 0.18946729E+03</totfact>
</mgrwt>
</event>
<event>
 8      1 +1.6198320e-01 2.79249800e+02 7.81860800e-03 1.09609900e-01
       -2 -1    0    0    0  501 -0.0000000000e+00 +0.0000000000e+00 +3.1122114795e+02 3.1122114796e+02 2.5500000000e-03 0.0000e+00 -1.0000e+00
        2 -1    0    0  501    0 +0.0000000000e+00 -0.0000000000e+00 -6.2640694380e+01 6.2640694432e+01 2.5500000000e-03 0.0000e+00 1.0000e+00
  1000101  2    1    2    0    0 +3.2859768755e+01 -2.8428856518e+00 +5.3990095295e+01 1.4018847931e+02 1.2510009168e+02 1.2392e+02 0.0000e+00
 -1000101  2    1    2    0    0 -3.2859768755e+01 +2.8428856518e+00 +1.9459035828e+02 2.3367336309e+02 1.2509990680e+02 3.9889e+01 0.0000e+00
       11  1    3    3    0    0 +1.4013277831e-02 +2.4759183245e-02 -6.1977055691e-02 6.8196815647e-02 5.1100000000e-04 0.0000e+00 1.0000e+00
      255  1    3    3    0    0 +3.2845755477e+01 -2.8676448351e+00 +5.4052072350e+01 1.4012028249e+02 1.2500000000e+02 0.0000e+00 0.0000e+00
      -11  1    4    4    0    0 -1.1045442096e-01 +3.9258126127e-02 +1.0787133166e-01 1.5930431536e-01 5.1100000000e-04 0.0000e+00 -1.0000e+00
      255  1    4    4    0    0 -3.2749314334e+01 +2.8036275257e+00 +1.9448248695e+02 2.3351405878e+02 1.2500000000e+02 0.0000e+00 0.0000e+00
<mgrwt>
<rscale>  0 0.27924977E+03</rscale>
<asrwt>0</asrwt>
<pdfrwt beam="1">  1        2 0.96370298E-02 0.27924977E+03</pdfrwt>
<pdfrwt beam="2">  1       -2 0.47880177E-01 0.27924977E+03</pdfrwt>
<totfact> 0.28035936E+03</totfact>
</mgrwt>
</event>
<event>
 8      1 +1.6198320e-01 2.84801700e+02 7.81860800e-03 1.09309500e-01
       -2 -1    0    0    0  501 -0.0000000000e+00 +0.0000000000e+00 +8.0303199495e+00 8.0303203544e+00 2.5500000000e-03 0.0000e+00 -1.0000e+00
        2 -1    0    0  501    0 +0.0000000000e+00 -0.0000000000e+00 -2.5251790980e+03 2.5251790980e+03 2.5500000000e-03 0.0000e+00 1.0000e+00
  1000101  2    1    2    0    0 +3.4672084128e+01 +9.1371036238e+00 -1.7728012109e+03 1.7775713070e+03 1.2509987278e+02 3.2991e+02 0.0000e+00
 -1000101  2    1    2    0    0 -3.4672084128e+01 -9.1371036238e+00 -7.4434756719e+02 7.5563811135e+02 1.2510001785e+02 1.2595e+02 0.0000e+00
       11  1    3    3    0    0 +9.2467690363e-02 -4.6960501427e-02 -2.3468342766e+00 2.3491247190e+00 5.1100000000e-04 0.0000e+00 1.0000e+00
      255  1    3    3    0    0 +3.4579616438e+01 +9.1840641252e+00 -1.7704543766e+03 1.7752221823e+03 1.2500000000e+02 0.0000e+00 0.0000e+00
      -11  1    4    4    0    0 -4.1151817362e-02 -9.0417802329e-03 -4.0500001569e-02 5.8444307764e-02 5.1100000000e-04 0.0000e+00 -1.0000e+00
      255  1    4    4    0    0 -3.4630932311e+01 -9.1280618435e+00 -7.4430706719e+02 7.5557966704e+02 1.2500000000e+02 0.0000e+00 0.0000e+00
<mgrwt>
<rscale>  0 0.28480166E+03</rscale>
<asrwt>0</asrwt>
<pdfrwt beam="1">  1        2 0.38848846E+00 0.28480166E+03</pdfrwt>
<pdfrwt beam="2">  1       -2 0.12354359E-02 0.28480166E+03</pdfrwt>
<totfact> 0.60865221E+03</totfact>
</mgrwt>
</event>
<event>
 8      1 +1.6198320e-01 5.06371800e+02 7.81860800e-03 1.01212900e-01
        2 -1    0    0  501    0 +0.0000000000e+00 +0.0000000000e+00 +7.8932300854e+02 7.8932300854e+02 2.5500000000e-03 0.0000e+00 1.0000e+00
       -2 -1    0    0    0  501 -0.0000000000e+00 -0.0000000000e+00 -8.1212749603e+01 8.1212749643e+01 2.5500000000e-03 0.0000e+00 -1.0000e+00
  1000101  2    1    2    0    0 +2.0965914851e+02 -6.4669899915e+01 +3.2358878445e+02 4.1048613028e+02 1.2509998890e+02 4.7896e+01 0.0000e+00
 -1000101  2    1    2    0    0 -2.0965914851e+02 +6.4669899915e+01 +3.8452147449e+02 4.6004962791e+02 1.2509892599e+02 3.2621e+01 0.0000e+00
       11  1    3    3    0    0 +1.1647723903e-01 +5.7252329578e-02 +2.0326694423e-01 2.4116900338e-01 5.1100000000e-04 0.0000e+00 1.0000e+00
      255  1    3    3    0    0 +2.0954267127e+02 -6.4727152245e+01 +3.2338551750e+02 4.1024496128e+02 1.2500000000e+02 0.0000e+00 0.0000e+00
      -11  1    4    4    0    0 -6.9442827126e-02 +9.5502720399e-02 +9.5905261968e-02 1.5212217536e-01 5.1100000000e-04 0.0000e+00 -1.0000e+00
      255  1    4    4    0    0 -2.0958970569e+02 +6.4574397195e+01 +3.8442556923e+02 4.5989750573e+02 1.2500000000e+02 0.0000e+00 0.0000e+00
<mgrwt>
<rscale>  0 0.50637177E+03</rscale>
<asrwt>0</asrwt>
<pdfrwt beam="1">  1        2 0.12143430E+00 0.50637177E+03</pdfrwt>
<pdfrwt beam="2">  1       -2 0.12494270E-01 0.50637177E+03</pdfrwt>
<totfact> 0.16734472E+03</totfact>
</mgrwt>
</event>
<event>
 8      1 +1.6198320e-01 2.82642400e+02 7.81860800e-03 1.09425400e-01
        2 -1    0    0  501    0 +0.0000000000e+00 +0.0000000000e+00 +7.9057447378e+02 7.9057447378e+02 2.5500000000e-03 0.0000e+00 1.0000e+00
       -2 -1    0    0    0  501 -0.0000000000e+00 -0.0000000000e+00 -2.5262242482e+01 2.5262242611e+01 2.5500000000e-03 0.0000e+00 -1.0000e+00
  1000101  2    1    2    0    0 +3.7499546824e+01 +4.7377009062e+01 +3.0789362505e+02 3.3778588765e+02 1.2510005814e+02 1.1930e+02 0.0000e+00
 -1000101  2    1    2    0    0 -3.7499546824e+01 -4.7377009062e+01 +4.5741860624e+02 4.7805082875e+02 1.2510002609e+02 3.0426e+01 0.0000e+00
       11  1    3    3    0    0 -4.6815722700e-02 +3.9527668368e-02 +3.6474469691e-01 3.6985551707e-01 5.1100000000e-04 0.0000e+00 1.0000e+00
      255  1    3    3    0    0 +3.7546362546e+01 +4.7337481393e+01 +3.0752888036e+02 3.3741603213e+02 1.2500000000e+02 0.0000e+00 0.0000e+00
      -11  1    4    4    0    0 -2.5389371692e-02 -1.4173158562e-01 +4.1317745167e-01 4.3754808906e-01 5.1100000000e-04 0.0000e+00 -1.0000e+00
      255  1    4    4    0    0 -3.7474157452e+01 -4.7235277476e+01 +4.5700542879e+02 4.7761328066e+02 1.2500000000e+02 0.0000e+00 0.0000e+00
<mgrwt>
<rscale>  0 0.28264242E+03</rscale>
<asrwt>0</asrwt>
<pdfrwt beam="1">  1        2 0.12162683E+00 0.28264242E+03</pdfrwt>
<pdfrwt beam="2">  1       -2 0.38864991E-02 0.28264242E+03</pdfrwt>
<totfact> 0.10317092E+04</totfact>
</mgrwt>
</event>
<event>
 8      1 +1.6198320e-01 4.20139700e+02 7.81860800e-03 1.03702100e-01
       -2 -1    0    0    0  501 -0.0000000000e+00 +0.0000000000e+00 +1.7404347015e+01 1.7404347202e+01 2.5500000000e-03 0.0000e+00 -1.0000e+00
        2 -1    0    0  501    0 +0.0000000000e+00 -0.0000000000e+00 -2.5355362089e+03 2.5355362089e+03 2.5500000000e-03 0.0000e+00 1.0000e+00
  1000101  2    1    2    0    0 +5.1131118000e+01 +1.3965866547e+02 -1.7436744483e+03 1.7544712959e+03 1.2510001023e+02 2.9463e+01 0.0000e+00
 -1000101  2    1    2    0    0 -5.1131118000e+01 -1.3965866547e+02 -7.7445741364e+02 7.9846926022e+02 1.2509971982e+02 5.0962e+01 0.0000e+00
       11  1    3    3    0    0 +4.7406665374e-02 +2.2106894144e-01 -1.5137529490e+00 1.5305447137e+00 5.1100000000e-04 0.0000e+00 1.0000e+00
      255  1    3    3    0    0 +5.1083711334e+01 +1.3943759653e+02 -1.7421606953e+03 1.7529407512e+03 1.2500000000e+02 0.0000e+00 0.0000e+00
      -11  1    4    4    0    0 -4.5002833156e-02 -1.7314667288e-01 -4.2741068429e-01 4.6334132072e-01 5.1100000000e-04 0.0000e+00 -1.0000e+00
      255  1    4    4    0    0 -5.1086115167e+01 -1.3948551880e+02 -7.7403000295e+02 7.9800591889e+02 1.2500000000e+02 0.0000e+00 0.0000e+00
<mgrwt>
<rscale>  0 0.42013975E+03</rscale>
<asrwt>0</asrwt>
<pdfrwt beam="1">  1        2 0.39008220E+00 0.42013975E+03</pdfrwt>
<pdfrwt beam="2">  1       -2 0.26775939E-02 0.42013975E+03</pdfrwt>
<totfact> 0.18977909E+03</totfact>
</mgrwt>
</event>
<event>
 8      1 +1.6198320e-01 3.15623400e+02 7.81860800e-03 1.07768100e-01
        2 -1    0    0  501    0 +0.0000000000e+00 +0.0000000000e+00 +2.1433950734e+03 2.1433950734e+03 2.5500000000e-03 0.0000e+00 1.0000e+00
       -2 -1    0    0    0  501 -0.0000000000e+00 -0.0000000000e+00 -1.1619195914e+01 1.1619196193e+01 2.5500000000e-03 0.0000e+00 -1.0000e+00
  1000101  2    1    2    0    0 -5.8355246525e+00 -9.1416183786e+01 +8.6524426894e+02 8.7902709170e+02 1.2510000397e+02 1.9932e+02 0.0000e+00
 -1000101  2    1    2    0    0 +5.8355246525e+00 +9.1416183786e+01 +1.2665316085e+03 1.2759871779e+03 1.2509992292e+02 5.3014e+01 0.0000e+00
       11  1    3    3    0    0 -1.0318284141e-01 -5.8968105898e-02 +6.0650727911e-01 6.1804148486e-01 5.1100000000e-04 0.0000e+00 1.0000e+00
      255  1    3    3    0    0 -5.7323418111e+00 -9.1357215680e+01 +8.6463776167e+02 8.7840905021e+02 1.2500000000e+02 0.0000e+00 0.0000e+00
      -11  1    4    4    0    0 +4.5151707084e-02 -1.1216431198e-02 +1.2699791188e-01 1.3525241486e-01 5.1100000000e-04 0.0000e+00 -1.0000e+00
      255  1    4    4    0    0 +5.7903729454e+00 +9.1427400217e+01 +1.2664046106e+03 1.2758519254e+03 1.2500000000e+02 0.0000e+00 0.0000e+00
<mgrwt>
<rscale>  0 0.31562337E+03</rscale>
<asrwt>0</asrwt>
<pdfrwt beam="1">  1        2 0.32975302E+00 0.31562337E+03</pdfrwt>
<pdfrwt beam="2">  1       -2 0.17875690E-02 0.31562337E+03</pdfrwt>
<totfact> 0.56909273E+03</totfact>
</mgrwt>
</event>
<event>
 8      1 +1.6198320e-01 3.06345200e+02 7.81860800e-03 1.08211100e-01
        2 -1    0    0  501    0 +0.0000000000e+00 +0.0000000000e+00 +1.5869137786e+03 1.5869137786e+03 2.5500000000e-03 0.0000e+00 -1.0000e+00
       -2 -1    0    0    0  501 -0.0000000000e+00 -0.0000000000e+00 -1.4784574888e+01 1.4784575108e+01 2.5500000000e-03 0.0000e+00 1.0000e+00
  1000101  2    1    2    0    0 -3.2226512689e+01 +8.2217804005e+01 +7.6683607130e+02 7.8197562102e+02 1.2509994489e+02 7.4111e+01 0.0000e+00
 -1000101  2    1    2    0    0 +3.2226512689e+01 -8.2217804005e+01 +8.0529313245e+02 8.1972273272e+02 1.2510001583e+02 1.6923e+02 0.0000e+00
       11  1    3    3    0    0 -2.8756196287e-02 +1.5405932784e-01 +5.1182374892e-01 5.3528030638e-01 5.1100000000e-04 0.0000e+00 1.0000e+00
      255  1    3    3    0    0 -3.2197756493e+01 +8.2063744677e+01 +7.6632424755e+02 7.8144034072e+02 1.2500000000e+02 0.0000e+00 0.0000e+00
      -11  1    4    4    0    0 +1.8010521069e-02 +1.2794619182e-02 +8.1710811918e-01 8.1740688809e-01 5.1100000000e-04 0.0000e+00 -1.0000e+00
      255  1    4    4    0    0 +3.2208502168e+01 -8.2230598624e+01 +8.0447602433e+02 8.1890532583e+02 1.2500000000e+02 0.0000e+00 0.0000e+00
<mgrwt>
<rscale>  0 0.30634520E+03</rscale>
<asrwt>0</asrwt>
<pdfrwt beam="1">  1        2 0.24414056E+00 0.30634520E+03</pdfrwt>
<pdfrwt beam="2">  1       -2 0.22745502E-02 0.30634520E+03</pdfrwt>
<totfact> 0.78528227E+03</totfact>
</mgrwt>
</event>
<event>
 8      1 +1.6198320e-01 6.93559400e+02 7.81860800e-03 9.72831000e-02
        2 -1    0    0  501    0 +0.0000000000e+00 +0.0000000000e+00 +4.3100329608e+02 4.3100329609e+02 2.5500000000e-03 0.0000e+00 1.0000e+00
       -2 -1    0    0    0  501 -0.0000000000e+00 -0.0000000000e+00 -2.7901451255e+02 2.7901451256e+02 2.5500000000e-03 0.0000e+00 -1.0000e+00
  1000101  2    1    2    0    0 -2.5525777825e+02 +1.6987750495e+01 +2.7858193559e+02 3.9837544024e+02 1.2509987819e+02 2.4525e+02 0.0000e+00
 -1000101  2    1    2    0    0 +2.5525777825e+02 -1.6987750495e+01 -1.2659315206e+02 3.1164236840e+02 1.2510005040e+02 5.8143e+01 0.0000e+00
       11  1    3    3    0    0 -3.5173654175e-01 -1.9342938455e-02 +4.3936042375e-01 5.6314348718e-01 5.1100000000e-04 0.0000e+00 1.0000e+00
      255  1    3    3    0    0 -2.5490604171e+02 +1.7007093433e+01 +2.7814257517e+02 3.9781229675e+02 1.2500000000e+02 0.0000e+00 0.0000e+00
      -11  1    4    4    0    0 +3.6718538068e-01 +1.2880692168e-02 -9.9723057011e-02 3.8070456425e-01 5.1100000000e-04 0.0000e+00 -1.0000e+00
      255  1    4    4    0    0 +2.5489059287e+02 -1.7000631187e+01 -1.2649342900e+02 3.1126166384e+02 1.2500000000e+02 0.0000e+00 0.0000e+00
<mgrwt>
<rscale>  0 0.69355944E+03</rscale>
<asrwt>0</asrwt>
<pdfrwt beam="1">  1        2 0.66308199E-01 0.69355944E+03</pdfrwt>
<pdfrwt beam="2">  1       -2 0.42925310E-01 0.69355944E+03</pdfrwt>
<totfact> 0.37911451E+02</totfact>
</mgrwt>
</event>
<event>
 8      1 +1.6198320e-01 3.41685200e+02 7.81860800e-03 1.06608000e-01
       -2 -1    0    0    0  501 -0.0000000000e+00 +0.0000000000e+00 +6.1811351606e+01 6.1811351659e+01 2.5500000000e-03 0.0000e+00 -1.0000e+00
        2 -1    0    0  501    0 +0.0000000000e+00 -0.0000000000e+00 -4.7219794874e+02 4.7219794875e+02 2.5500000000e-03 0.0000e+00 1.0000e+00
  1000101  2    1    2    0    0 +9.1307868514e+01 +6.6931940464e+01 -1.6325257347e+02 2.3477321301e+02 1.2510014906e+02 3.5918e+02 0.0000e+00
 -1000101  2    1    2    0    0 -9.1307868514e+01 -6.6931940464e+01 -2.4713402366e+02 2.9923608740e+02 1.2509995541e+02 6.6935e+01 0.0000e+00
       11  1    3    3    0    0 +1.1254287057e-01 +1.0647480138e-01 -2.9178240386e-01 3.3036345647e-01 5.1100000000e-04 0.0000e+00 1.0000e+00
      255  1    3    3    0    0 +9.1195325643e+01 +6.6825465663e+01 -1.6296079107e+02 2.3444284955e+02 1.2500000000e+02 0.0000e+00 0.0000e+00
      -11  1    4    4    0    0 -2.8755973885e-03 -7.2639277140e-02 -2.8602715130e-01 2.9512120569e-01 5.1100000000e-04 0.0000e+00 -1.0000e+00
      255  1    4    4    0    0 -9.1304992916e+01 -6.6859301187e+01 -2.4684799651e+02 2.9894096619e+02 1.2500000000e+02 0.0000e+00 0.0000e+00
<mgrwt>
<rscale>  0 0.34168520E+03</rscale>
<asrwt>0</asrwt>
<pdfrwt beam="1">  1        2 0.72645836E-01 0.34168520E+03</pdfrwt>
<pdfrwt beam="2">  1       -2 0.95094390E-02 0.34168520E+03</pdfrwt>
<totfact> 0.47893236E+03</totfact>
</mgrwt>
</event>
<event>
 8      1 +1.6198320e-01 3.01373500e+02 7.81860800e-03 1.08455600e-01
        4 -1    0    0  501    0 +0.0000000000e+00 +0.0000000000e+00 +7.3177606018e+01 7.3188625636e+01 1.2700000000e+00 0.0000e+00 1.0000e+00
       -4 -1    0    0    0  501 -0.0000000000e+00 -0.0000000000e+00 -3.1025718914e+02 3.1025978842e+02 1.2700000000e+00 0.0000e+00 -1.0000e+00
  1000101  2    1    2    0    0 -1.7007518830e+01 -4.5797702012e+01 -3.1593503230e+01 1.3796677526e+02 1.2509994574e+02 2.9201e+02 0.0000e+00
 -1000101  2    1    2    0    0 +1.7007518830e+01 +4.5797702012e+01 -2.0548607989e+02 2.4548163880e+02 1.2510004297e+02 3.6454e+01 0.0000e+00
       11  1    3    3    0    0 -9.4429266646e-02 -2.2445777112e-02 +3.2278892875e-02 1.0228825620e-01 5.1100000000e-04 0.0000e+00 1.0000e+00
      255  1    3    3    0    0 -1.6913089564e+01 -4.5775256235e+01 -3.1625782122e+01 1.3786448700e+02 1.2500000000e+02 0.0000e+00 0.0000e+00
      -11  1    4    4    0    0 -2.9986468945e-02 -3.9387167402e-02 -1.0948807250e-02 5.0701822224e-02 5.1100000000e-04 0.0000e+00 -1.0000e+00
      255  1    4    4    0    0 +1.7037505299e+01 +4.5837089179e+01 -2.0547513108e+02 2.4543093698e+02 1.2500000000e+02 0.0000e+00 0.0000e+00
<mgrwt>
<rscale>  0 0.30137345E+03</rscale>
<asrwt>0</asrwt>
<pdfrwt beam="1">  1        4 0.11259141E-01 0.30137345E+03</pdfrwt>
<pdfrwt beam="2">  1       -4 0.47732922E-01 0.30137345E+03</pdfrwt>
<totfact> 0.50099837E+02</totfact>
</mgrwt>
</event>
<event>
 8      1 +1.6198320e-01 5.53351200e+02 7.81860800e-03 1.00072100e-01
        1 -1    0    0  501    0 +0.0000000000e+00 +0.0000000000e+00 +1.5303530905e+03 1.5303530906e+03 5.0400000000e-03 0.0000e+00 -1.0000e+00
       -1 -1    0    0    0  501 -0.0000000000e+00 -0.0000000000e+00 -5.0020738049e+01 5.0020738303e+01 5.0400000000e-03 0.0000e+00 1.0000e+00
  1000101  2    1    2    0    0 +1.3768663625e+02 -1.6544061009e+02 +1.0849178847e+03 1.1131150154e+03 1.2510002289e+02 2.3529e+02 0.0000e+00
 -1000101  2    1    2    0    0 -1.3768663625e+02 +1.6544061009e+02 +3.9541446779e+02 4.6725881344e+02 1.2509992857e+02 7.4087e+01 0.0000e+00
       11  1    3    3    0    0 +7.9475417289e-02 -9.5361333154e-02 +1.1205584606e+00 1.1274136998e+00 5.1100000000e-04 0.0000e+00 1.0000e+00
      255  1    3    3    0    0 +1.3760716084e+02 -1.6534524875e+02 +1.0837973262e+03 1.1119876017e+03 1.2500000000e+02 0.0000e+00 0.0000e+00
      -11  1    4    4    0    0 -8.7510653566e-02 +1.6808535111e-01 +5.0512403300e-01 5.3950101907e-01 5.1100000000e-04 0.0000e+00 -1.0000e+00
      255  1    4    4    0    0 -1.3759912560e+02 +1.6527252473e+02 +3.9490934376e+02 4.6671931242e+02 1.2500000000e+02 0.0000e+00 0.0000e+00
<mgrwt>
<rscale>  0 0.55335121E+03</rscale>
<asrwt>0</asrwt>
<pdfrwt beam="1">  1        1 0.23543894E+00 0.55335121E+03</pdfrwt>
<pdfrwt beam="2">  1       -1 0.76954982E-02 0.55335121E+03</pdfrwt>
<totfact> 0.61118917E+02</totfact>
</mgrwt>
</event>
<event>
 8      1 +1.6198320e-01 4.69672700e+02 7.81860800e-03 1.02201300e-01
       -1 -1    0    0    0  501 -0.0000000000e+00 +0.0000000000e+00 +2.4525179776e+01 2.4525180294e+01 5.0400000000e-03 0.0000e+00 -1.0000e+00
        1 -1    0    0  501    0 +0.0000000000e+00 -0.0000000000e+00 -2.2486326344e+03 2.2486326344e+03 5.0400000000e-03 0.0000e+00 1.0000e+00
  1000101  2    1    2    0    0 -5.3335049841e+01 +1.0940135181e+02 -3.5164074764e+02 3.9257417314e+02 1.2509989089e+02 4.1346e+01 0.0000e+00
 -1000101  2    1    2    0    0 +5.3335049841e+01 -1.0940135181e+02 -1.8724667070e+03 1.8805836416e+03 1.2509988330e+02 0.0000e+00 0.0000e+00
       11  1    3    3    0    0 -9.5716621007e-02 +8.8549438512e-02 -5.0886084613e-01 5.2530210017e-01 5.1100000000e-04 0.0000e+00 1.0000e+00
      255  1    3    3    0    0 -5.3239333220e+01 +1.0931280237e+02 -3.5113188679e+02 3.9204887104e+02 1.2500000000e+02 0.0000e+00 0.0000e+00
      -11  1    4    4    0    0 -5.1144591772e-02 +6.8902329463e-03 -5.4513439181e-01 5.4757192298e-01 5.1100000000e-04 0.0000e+00 -1.0000e+00
      255  1    4    4    0    0 +5.3386194433e+01 -1.0940824204e+02 -1.8719215726e+03 1.8800360697e+03 1.2500000000e+02 0.0000e+00 0.0000e+00
<mgrwt>
<rscale>  0 0.46967274E+03</rscale>
<asrwt>0</asrwt>
<pdfrwt beam="1">  1        1 0.34594332E+00 0.46967274E+03</pdfrwt>
<pdfrwt beam="2">  1       -1 0.37731064E-02 0.46967274E+03</pdfrwt>
<totfact> 0.60940815E+02</totfact>
</mgrwt>
</event>
<event>
 8      1 +1.6198320e-01 3.61813200e+02 7.81860800e-03 1.05786800e-01
        2 -1    0    0  501    0 +0.0000000000e+00 +0.0000000000e+00 +1.6360095626e+03 1.6360095626e+03 2.5500000000e-03 0.0000e+00 1.0000e+00
       -2 -1    0    0    0  501 -0.0000000000e+00 -0.0000000000e+00 -2.0004278036e+01 2.0004278199e+01 2.5500000000e-03 0.0000e+00 -1.0000e+00
  1000101  2    1    2    0    0 -1.5925315711e+01 +1.1177160356e+02 +5.0680173446e+02 5.3408289493e+02 1.2510009419e+02 1.8561e+01 0.0000e+00
 -1000101  2    1    2    0    0 +1.5925315711e+01 -1.1177160356e+02 +1.1092035501e+03 1.1219309459e+03 1.2510005872e+02 2.2836e+02 0.0000e+00
       11  1    3    3    0    0 +2.1273105577e-02 -5.9096492085e-03 +4.1055666660e-01 4.1115022387e-01 5.1100000000e-04 0.0000e+00 1.0000e+00
      255  1    3    3    0    0 -1.5946588817e+01 +1.1177751321e+02 +5.0639117780e+02 5.3367174471e+02 1.2500000000e+02 0.0000e+00 0.0000e+00
      -11  1    4    4    0    0 +7.7727109054e-02 -1.8514165772e-01 +1.0910568127e+00 1.1093800821e+00 5.1100000000e-04 0.0000e+00 -1.0000e+00
      255  1    4    4    0    0 +1.5847588602e+01 -1.1158646190e+02 +1.1081124933e+03 1.1208215658e+03 1.2500000000e+02 0.0000e+00 0.0000e+00
<mgrwt>
<rscale>  0 0.36181316E+03</rscale>
<asrwt>0</asrwt>
<pdfrwt beam="1">  1        2 0.25169380E+00 0.36181316E+03</pdfrwt>
<pdfrwt beam="2">  1       -2 0.30775810E-02 0.36181316E+03</pdfrwt>
<totfact> 0.47140964E+03</totfact>
</mgrwt>
</event>
<event>
 8      1 +1.6198320e-01 3.60094400e+02 7.81860800e-03 1.05854600e-01
        2 -1    0    0  501    0 +0.0000000000e+00 +0.0000000000e+00 +1.3102031728e+02 1.3102031731e+02 2.5500000000e-03 0.0000e+00 1.0000e+00
       -2 -1    0    0    0  501 -0.0000000000e+00 -0.0000000000e+00 -2.4741960828e+02 2.4741960830e+02 2.5500000000e-03 0.0000e+00 -1.0000e+00
  1000101  2    1    2    0    0 +1.5536590424e+01 -1.0167292502e+02 +2.4473078148e+01 1.6379180955e+02 1.2510018385e+02 3.2795e+00 0.0000e+00
 -1000101  2    1    2    0    0 -1.5536590424e+01 +1.0167292502e+02 -1.4087236915e+02 2.1464811605e+02 1.2510004002e+02 1.3391e+02 0.0000e+00
       11  1    3    3    0    0 +4.4923207096e-02 -3.6432962531e-02 +1.0386245242e-01 1.1888282230e-01 5.1100000000e-04 0.0000e+00 1.0000e+00
      255  1    3    3    0    0 +1.5491667216e+01 -1.0163649206e+02 +2.4369215696e+01 1.6367292673e+02 1.2500000000e+02 0.0000e+00 0.0000e+00
      -11  1    4    4    0    0 +3.2110276664e-02 +1.6824760772e-01 -8.3969352938e-02 1.9076016546e-01 5.1100000000e-04 0.0000e+00 -1.0000e+00
      255  1    4    4    0    0 -1.5568700700e+01 +1.0150467741e+02 -1.4078839979e+02 2.1445735589e+02 1.2500000000e+02 0.0000e+00 0.0000e+00
<mgrwt>
<rscale>  0 0.36009441E+03</rscale>
<asrwt>0</asrwt>
<pdfrwt beam="1">  1        2 0.20156972E-01 0.36009441E+03</pdfrwt>
<pdfrwt beam="2">  1       -2 0.38064555E-01 0.36009441E+03</pdfrwt>
<totfact> 0.18129475E+03</totfact>
</mgrwt>
</event>
<event>
 8      1 +1.6198320e-01 2.77372400e+02 7.81860800e-03 1.09713300e-01
        2 -1    0    0  501    0 +0.0000000000e+00 +0.0000000000e+00 +3.1280767240e+02 3.1280767241e+02 2.5500000000e-03 0.0000e+00 1.0000e+00
       -2 -1    0    0    0  501 -0.0000000000e+00 -0.0000000000e+00 -6.1487805706e+01 6.1487805759e+01 2.5500000000e-03 0.0000e+00 -1.0000e+00
  1000101  2    1    2    0    0 +2.0414724046e+01 -2.1957740612e+01 +5.5737919644e+01 1.4019907084e+02 1.2510060131e+02 2.4862e+02 0.0000e+00
 -1000101  2    1    2    0    0 -2.0414724046e+01 +2.1957740612e+01 +1.9558194705e+02 2.3409640733e+02 1.2509966659e+02 4.8097e+01 0.0000e+00
       11  1    3    3    0    0 -2.5094439775e-03 +6.6898792356e-02 +9.6037147750e-02 1.1706895659e-01 5.1100000000e-04 0.0000e+00 1.0000e+00
      255  1    3    3    0    0 +2.0417233490e+01 -2.2024639405e+01 +5.5641882497e+01 1.4008200188e+02 1.2500000000e+02 0.0000e+00 0.0000e+00
      -11  1    4    4    0    0 +6.4443556714e-02 +2.6903984584e-02 +3.1855783836e-02 7.6758377221e-02 5.1100000000e-04 0.0000e+00 -1.0000e+00
      255  1    4    4    0    0 -2.0479167603e+01 +2.1930836628e+01 +1.9555009127e+02 2.3401964895e+02 1.2500000000e+02 0.0000e+00 0.0000e+00
<mgrwt>
<rscale>  0 0.27737237E+03</rscale>
<asrwt>0</asrwt>
<pdfrwt beam="1">  1        2 0.48124256E-01 0.27737237E+03</pdfrwt>
<pdfrwt beam="2">  1       -2 0.94596626E-02 0.27737237E+03</pdfrwt>
<totfact> 0.75236826E+03</totfact>
</mgrwt>
</event>
<event>
 8      1 +1.6198320e-01 3.01205900e+02 7.81860800e-03 1.08463900e-01
       -2 -1    0    0    0  501 -0.0000000000e+00 +0.0000000000e+00 +3.7692511088e+01 3.7692511174e+01 2.5500000000e-03 0.0000e+00 -1.0000e+00
        2 -1    0    0  501    0 +0.0000000000e+00 -0.0000000000e+00 -6.0174420736e+02 6.0174420737e+02 2.5500000000e-03 0.0000e+00 1.0000e+00
  1000101  2    1    2    0    0 -7.9228907980e+01 -6.8655035468e+00 -2.2558282191e+02 2.6992953301e+02 1.2509991308e+02 2.2963e+01 0.0000e+00
 -1000101  2    1    2    0    0 +7.9228907980e+01 +6.8655035468e+00 -3.3846887436e+02 3.6950718553e+02 1.2510006493e+02 1.2625e+02 0.0000e+00
       11  1    3    3    0    0 -2.6262361671e-02 +5.5157544664e-02 -2.8002550053e-01 2.8661229639e-01 5.1100000000e-04 0.0000e+00 1.0000e+00
      255  1    3    3    0    0 -7.9202645619e+01 -6.9206610914e+00 -2.2530279641e+02 2.6964292072e+02 1.2500000000e+02 0.0000e+00 0.0000e+00
      -11  1    4    4    0    0 +1.1536760451e-01 +2.2044137331e-02 -1.1513610391e-01 1.6447556568e-01 5.1100000000e-04 0.0000e+00 -1.0000e+00
      255  1    4    4    0    0 +7.9113540376e+01 +6.8434594094e+00 -3.3835373826e+02 3.6934270996e+02 1.2500000000e+02 0.0000e+00 0.0000e+00
<mgrwt>
<rscale>  0 0.30120591E+03</rscale>
<asrwt>0</asrwt>
<pdfrwt beam="1">  1        2 0.92576025E-01 0.30120591E+03</pdfrwt>
<pdfrwt beam="2">  1       -2 0.57988483E-02 0.30120591E+03</pdfrwt>
<totfact> 0.78393682E+03</totfact>
</mgrwt>
</event>
<event>
 8      1 +1.6198320e-01 2.86499500e+02 7.81860800e-03 1.09219100e-01
       -2 -1    0    0    0  501 -0.0000000000e+00 +0.0000000000e+00 +4.4535972206e+02 4.4535972207e+02 2.5500000000e-03 0.0000e+00 1.0000e+00
        2 -1    0    0  501    0 +0.0000000000e+00 -0.0000000000e+00 -4.6076210904e+01 4.6076210975e+01 2.5500000000e-03 0.0000e+00 -1.0000e+00
  1000101  2    1    2    0    0 +4.0309669776e+01 +2.9420119330e+01 +2.8332514329e+02 3.1370929820e+02 1.2509985634e+02 1.4391e+02 0.0000e+00
 -1000101  2    1    2    0    0 -4.0309669776e+01 -2.9420119330e+01 +1.1595836786e+02 1.7772663484e+02 1.2509996306e+02 4.6524e+01 0.0000e+00
       11  1    3    3    0    0 +3.3027742023e-03 +1.8957636782e-02 +4.2925525973e-01 4.2968667589e-01 5.1100000000e-04 0.0000e+00 1.0000e+00
      255  1    3    3    0    0 +4.0306367002e+01 +2.9401161694e+01 +2.8289588803e+02 3.1327961152e+02 1.2500000000e+02 0.0000e+00 0.0000e+00
      -11  1    4    4    0    0 -1.0123929983e-01 -6.6276932369e-02 +3.2047075102e-02 1.2517708951e-01 5.1100000000e-04 0.0000e+00 -1.0000e+00
      255  1    4    4    0    0 -4.0208430476e+01 -2.9353842398e+01 +1.1592632079e+02 1.7760145775e+02 1.2500000000e+02 0.0000e+00 0.0000e+00
<mgrwt>
<rscale>  0 0.28649948E+03</rscale>
<asrwt>0</asrwt>
<pdfrwt beam="1">  1        2 0.70886481E-02 0.28649948E+03</pdfrwt>
<pdfrwt beam="2">  1       -2 0.68516878E-01 0.28649948E+03</pdfrwt>
<totfact> 0.19838396E+03</totfact>
</mgrwt>
</event>
<event>
 8      1 +1.6198320e-01 3.63307500e+02 7.81860800e-03 1.05728200e-01
        2 -1    0    0  501    0 +0.0000000000e+00 +0.0000000000e+00 +1.9541110500e+02 1.9541110501e+02 2.5500000000e-03 0.0000e+00 1.0000e+00
       -2 -1    0    0    0  501 -0.0000000000e+00 -0.0000000000e+00 -1.6886495047e+02 1.6886495049e+02 2.5500000000e-03 0.0000e+00 -1.0000e+00
  1000101  2    1    2    0    0 +9.8507380643e+01 -8.2226425342e+01 -1.6524983170e+01 1.7996650347e+02 1.2509987305e+02 1.9063e+02 0.0000e+00
 -1000101  2    1    2    0    0 -9.8507380643e+01 +8.2226425342e+01 +4.3071137697e+01 1.8430955203e+02 1.2509995604e+02 2.3788e+01 0.0000e+00
       11  1    3    3    0    0 -1.9112076532e-02 +2.5408348366e-02 +3.1090543419e-02 4.4471773597e-02 5.1100000000e-04 0.0000e+00 1.0000e+00
      255  1    3    3    0    0 +9.8526492719e+01 -8.2251833690e+01 -1.6556073714e+01 1.7992203170e+02 1.2500000000e+02 0.0000e+00 0.0000e+00
      -11  1    4    4    0    0 -1.4201556385e-01 +9.0497625769e-02 -4.3503327682e-02 1.7392826477e-01 5.1100000000e-04 0.0000e+00 -1.0000e+00
      255  1    4    4    0    0 -9.8365365079e+01 +8.2135927716e+01 +4.3114641025e+01 1.8413562377e+02 1.2500000000e+02 0.0000e+00 0.0000e+00
<mgrwt>
<rscale>  0 0.36330751E+03</rscale>
<asrwt>0</asrwt>
<pdfrwt beam="1">  1        2 0.30063247E-01 0.36330751E+03</pdfrwt>
<pdfrwt beam="2">  1       -2 0.25979223E-01 0.36330751E+03</pdfrwt>
<totfact> 0.23340089E+03</totfact>
</mgrwt>
</event>
<event>
 8      1 +1.6198320e-01 2.54304100e+02 7.81860800e-03 1.11061500e-01
        2 -1    0    0  501    0 +0.0000000000e+00 +0.0000000000e+00 +8.9068965028e+02 8.9068965028e+02 2.5500000000e-03 0.0000e+00 1.0000e+00
       -2 -1    0    0    0  501 -0.0000000000e+00 -0.0000000000e+00 -1.8151821243e+01 1.8151821422e+01 2.5500000000e-03 0.0000e+00 -1.0000e+00
  1000101  2    1    2    0    0 +7.5941631874e-01 -1.9586082729e+01 +3.9500171193e+02 4.1480191645e+02 1.2510030422e+02 2.2834e+01 0.0000e+00
 -1000101  2    1    2    0    0 -7.5941631874e-01 +1.9586082729e+01 +4.7753611711e+02 4.9403955525e+02 1.2510055021e+02 1.1057e+01 0.0000e+00
       11  1    3    3    0    0 -5.2285290186e-02 +6.9512288422e-02 +3.1797154199e-01 3.2965417098e-01 5.1100000000e-04 0.0000e+00 1.0000e+00
      255  1    3    3    0    0 +8.1170160892e-01 -1.9655595017e+01 +3.9468374039e+02 4.1447226228e+02 1.2500000000e+02 0.0000e+00 0.0000e+00
      -11  1    4    4    0    0 +2.6380439453e-02 -4.8760029311e-02 +6.0957772283e-02 8.2398902706e-02 5.1100000000e-04 0.0000e+00 -1.0000e+00
      255  1    4    4    0    0 -7.8579675819e-01 +1.9634842758e+01 +4.7747515933e+02 4.9395715635e+02 1.2500000000e+02 0.0000e+00 0.0000e+00
<mgrwt>
<rscale>  0 0.25430407E+03</rscale>
<asrwt>0</asrwt>
<pdfrwt beam="1">  1        2 0.13702917E+00 0.25430407E+03</pdfrwt>
<pdfrwt beam="2">  1       -2 0.27925881E-02 0.25430407E+03</pdfrwt>
<totfact> 0.14419296E+04</totfact>
</mgrwt>
</event>
<event>
 8      1 +1.6198320e-01 4.38535400e+02 7.81860800e-03 1.03119700e-01
       -2 -1    0    0    0  501 -0.0000000000e+00 +0.0000000000e+00 +2.1130745994e+01 2.1130746147e+01 2.5500000000e-03 0.0000e+00 -1.0000e+00
        2 -1    0    0  501    0 +0.0000000000e+00 -0.0000000000e+00 -2.2752779919e+03 2.2752779919e+03 2.5500000000e-03 0.0000e+00 1.0000e+00
  1000101  2    1    2    0    0 +1.4884661428e+01 -1.6687410468e+02 -7.8131151701e+02 8.0880542800e+02 1.2510001516e+02 1.1506e+01 0.0000e+00
 -1000101  2    1    2    0    0 -1.4884661428e+01 +1.6687410468e+02 -1.4728357289e+03 1.4876033100e+03 1.2509997518e+02 1.6136e+02 0.0000e+00
       11  1    3    3    0    0 +9.3925018013e-02 -5.9874690156e-02 -3.2809279193e-01 3.4648525044e-01 5.1100000000e-04 0.0000e+00 1.0000e+00
      255  1    3    3    0    0 +1.4790736410e+01 -1.6681422999e+02 -7.8098342421e+02 8.0845894275e+02 1.2500000000e+02 0.0000e+00 0.0000e+00
      -11  1    4    4    0    0 +4.7678084680e-03 +3.0174959331e-02 -3.5280631603e-02 4.6671664377e-02 5.1100000000e-04 0.0000e+00 -1.0000e+00
      255  1    4    4    0    0 -1.4889429237e+01 +1.6684392972e+02 -1.4728004482e+03 1.4875566384e+03 1.2500000000e+02 0.0000e+00 0.0000e+00
<mgrwt>
<rscale>  0 0.43853539E+03</rscale>
<asrwt>0</asrwt>
<pdfrwt beam="1">  1        2 0.35004257E+00 0.43853539E+03</pdfrwt>
<pdfrwt beam="2">  1       -2 0.32508858E-02 0.43853539E+03</pdfrwt>
<totfact> 0.19685097E+03</totfact>
</mgrwt>
</event>
<event>
 8      1 +1.6198320e-01 3.60267000e+02 7.81860800e-03 1.05847800e-01
       -2 -1    0    0    0  501 -0.0000000000e+00 +0.0000000000e+00 +3.8372515248e+01 3.8372515333e+01 2.5500000000e-03 0.0000e+00 -1.0000e+00
        2 -1    0    0  501    0 +0.0000000000e+00 -0.0000000000e+00 -8.4560732102e+02 8.4560732103e+02 2.5500000000e-03 0.0000e+00 1.0000e+00
  1000101  2    1    2    0    0 +6.6266925370e+01 +6.8308296546e+00 -1.3082719621e+02 1.9288275435e+02 1.2510010401e+02 1.1223e+02 0.0000e+00
 -1000101  2    1    2    0    0 -6.6266925370e+01 -6.8308296546e+00 -6.7640760957e+02 6.9109708201e+02 1.2509978760e+02 1.3824e+02 0.0000e+00
       11  1    3    3    0    0 -2.0934508038e-02 +6.6806925078e-02 -1.3291099531e-01 1.5022320946e-01 5.1100000000e-04 0.0000e+00 1.0000e+00
      255  1    3    3    0    0 +6.6287859878e+01 +6.7640227295e+00 -1.3069428521e+02 1.9273253114e+02 1.2500000000e+02 0.0000e+00 0.0000e+00
      -11  1    4    4    0    0 -1.2528942981e-01 +1.5210675897e-02 -3.3944278052e-01 3.6214702574e-01 5.1100000000e-04 0.0000e+00 -1.0000e+00
      255  1    4    4    0    0 -6.6141635940e+01 -6.8460403305e+00 -6.7606816679e+02 6.9073493499e+02 1.2500000000e+02 0.0000e+00 0.0000e+00
<mgrwt>
<rscale>  0 0.36026701E+03</rscale>
<asrwt>0</asrwt>
<pdfrwt beam="1">  1        2 0.13009342E+00 0.36026701E+03</pdfrwt>
<pdfrwt beam="2">  1       -2 0.59034645E-02 0.36026701E+03</pdfrwt>
<totfact> 0.50320406E+03</totfact>
</mgrwt>
</event>
<event>
 8      1 +1.6198320e-01 2.65804400e+02 7.81860800e-03 1.10370500e-01
       -2 -1    0    0    0  501 -0.0000000000e+00 +0.0000000000e+00 +3.5238442932e+01 3.5238443025e+01 2.5500000000e-03 0.0000e+00 -1.0000e+00
        2 -1    0    0  501    0 +0.0000000000e+00 -0.0000000000e+00 -5.0124218124e+02 5.0124218124e+02 2.5500000000e-03 0.0000e+00 1.0000e+00
  1000101  2    1    2    0    0 +1.7238352450e+01 +8.7585402744e+00 -3.1471540058e+02 3.3921926396e+02 1.2510017130e+02 1.1559e+01 0.0000e+00
 -1000101  2    1    2    0    0 -1.7238352450e+01 -8.7585402744e+00 -1.5128833773e+02 1.9726136031e+02 1.2510000126e+02 6.5527e+01 0.0000e+00
       11  1    3    3    0    0 -2.8323477902e-02 +4.3955537755e-02 -4.6654399305e-01 4.6946551234e-01 5.1100000000e-04 0.0000e+00 1.0000e+00
      255  1    3    3    0    0 +1.7266675928e+01 +8.7145847366e+00 -3.1424885658e+02 3.3874979845e+02 1.2500000000e+02 0.0000e+00 0.0000e+00
      -11  1    4    4    0    0 -6.6871703365e-02 -7.9224571366e-02 -2.0700800981e-01 2.3151875662e-01 5.1100000000e-04 0.0000e+00 -1.0000e+00
      255  1    4    4    0    0 -1.7171480747e+01 -8.6793157030e+00 -1.5108132972e+02 1.9702984155e+02 1.2500000000e+02 0.0000e+00 0.0000e+00
<mgrwt>
<rscale>  0 0.26580439E+03</rscale>
<asrwt>0</asrwt>
<pdfrwt beam="1">  1        2 0.77114177E-01 0.26580439E+03</pdfrwt>
<pdfrwt beam="2">  1       -2 0.54212993E-02 0.26580439E+03</pdfrwt>
<totfact> 0.10656544E+04</totfact>
</mgrwt>
</event>
<event>
 8      1 +1.6198320e-01 3.10822500e+02 7.81860800e-03 1.07995200e-01
        2 -1    0    0  501    0 +0.0000000000e+00 +0.0000000000e+00 +6.1877772129e+02 6.1877772130e+02 2.5500000000e-03 0.0000e+00 1.0000e+00
       -2 -1    0    0    0  501 -0.0000000000e+00 -0.0000000000e+00 -3.9032852765e+01 3.9032852848e+01 2.5500000000e-03 0.0000e+00 -1.0000e+00
  1000101  2    1    2    0    0 +4.2622806306e+01 -4.5612175976e+01 +1.4624891922e+02 2.0232628091e+02 1.2509997346e+02 2.5174e+00 0.0000e+00
 -1000101  2    1    2    0    0 -4.2622806306e+01 +4.5612175976e+01 +4.3349594931e+02 4.5548429323e+02 1.2510007636e+02 2.5409e+02 0.0000e+00
       11  1    3    3    0    0 -5.6343725597e-02 +6.0495776282e-03 +1.3362627028e-01 1.4514631939e-01 5.1100000000e-04 0.0000e+00 1.0000e+00
      255  1    3    3    0    0 +4.2679150031e+01 -4.5618225554e+01 +1.4611529295e+02 2.0218113459e+02 1.2500000000e+02 0.0000e+00 0.0000e+00
      -11  1    4    4    0    0 -1.3516912365e-01 +5.6963448801e-02 +5.5362859924e-01 5.7273066401e-01 5.1100000000e-04 0.0000e+00 -1.0000e+00
      255  1    4    4    0    0 -4.2487637182e+01 +4.5555212527e+01 +4.3294232071e+02 4.5491156257e+02 1.2500000000e+02 0.0000e+00 0.0000e+00
<mgrwt>
<rscale>  0 0.31082252E+03</rscale>
<asrwt>0</asrwt>
<pdfrwt beam="1">  1        2 0.95196568E-01 0.31082252E+03</pdfrwt>
<pdfrwt beam="2">  1       -2 0.60050546E-02 0.31082252E+03</pdfrwt>
<totfact> 0.71969268E+03</totfact>
</mgrwt>
</event>
<event>
 8      1 +1.6198320e-01 2.93914200e+02 7.81860800e-03 1.08832300e-01
       -2 -1    0    0    0  501 -0.0000000000e+00 +0.0000000000e+00 +7.0036401899e+00 7.0036406541e+00 2.5500000000e-03 0.0000e+00 -1.0000e+00
        2 -1    0    0  501    0 +0.0000000000e+00 -0.0000000000e+00 -3.0835937609e+03 3.0835937609e+03 2.5500000000e-03 0.0000e+00 1.0000e+00
  1000101  2    1    2    0    0 -3.5894186625e+01 +6.7262917949e+01 -1.6598432909e+03 1.6662960277e+03 1.2509999541e+02 3.5679e+02 0.0000e+00
 -1000101  2    1    2    0    0 +3.5894186625e+01 -6.7262917949e+01 -1.4167468298e+03 1.4243013738e+03 1.2510048359e+02 1.5044e+02 0.0000e+00
       11  1    3    3    0    0 -5.4106483344e-02 +1.6489375880e-01 -2.1614829840e+00 2.1684387043e+00 5.1100000000e-04 0.0000e+00 1.0000e+00
      255  1    3    3    0    0 -3.5840080142e+01 +6.7098024190e+01 -1.6576818079e+03 1.6641275890e+03 1.2500000000e+02 0.0000e+00 0.0000e+00
      -11  1    4    4    0    0 -4.0829000163e-02 -4.4601810002e-02 -2.0278278271e-01 2.1160682124e-01 5.1100000000e-04 0.0000e+00 -1.0000e+00
      255  1    4    4    0    0 +3.5935015625e+01 -6.7218316139e+01 -1.4165440470e+03 1.4240897670e+03 1.2500000000e+02 0.0000e+00 0.0000e+00
<mgrwt>
<rscale>  0 0.29391415E+03</rscale>
<asrwt>0</asrwt>
<pdfrwt beam="1">  1        2 0.47439796E+00 0.29391415E+03</pdfrwt>
<pdfrwt beam="2">  1       -2 0.10774856E-02 0.29391415E+03</pdfrwt>
<totfact> 0.35463357E+03</totfact>
</mgrwt>
</event>
<event>
 8      1 +1.6198320e-01 2.70858200e+02 7.81860800e-03 1.10078900e-01
        2 -1    0    0  501    0 +0.0000000000e+00 +0.0000000000e+00 +6.3335379796e+02 6.3335379797e+02 2.5500000000e-03 0.0000e+00 1.0000e+00
       -2 -1    0    0    0  501 -0.0000000000e+00 -0.0000000000e+00 -2.8958612806e+01 2.8958612918e+01 2.5500000000e-03 0.0000e+00 -1.0000e+00
  1000101  2    1    2    0    0 -1.4743130583e+01 +1.9674849352e+01 +1.9050033192e+02 2.2922656120e+02 1.2509988130e+02 1.0518e+01 0.0000e+00
 -1000101  2    1    2    0    0 +1.4743130583e+01 -1.9674849352e+01 +4.1389485324e+02 4.3308584969e+02 1.2509973647e+02 2.1622e+01 0.0000e+00
       11  1    3    3    0    0 +4.0926920943e-02 -1.8175039679e-02 +2.7637129348e-01 2.7997624525e-01 5.1100000000e-04 0.0000e+00 1.0000e+00
      255  1    3    3    0    0 -1.4784057504e+01 +1.9693024391e+01 +1.9022396062e+02 2.2894658495e+02 1.2500000000e+02 0.0000e+00 0.0000e+00
      -11  1    4    4    0    0 -5.7394949427e-02 +2.5509224311e-02 +4.8897975048e-01 4.9299732073e-01 5.1100000000e-04 0.0000e+00 -1.0000e+00
      255  1    4    4    0    0 +1.4800525532e+01 -1.9700358576e+01 +4.1340587349e+02 4.3259285237e+02 1.2500000000e+02 0.0000e+00 0.0000e+00
<mgrwt>
<rscale>  0 0.27085825E+03</rscale>
<asrwt>0</asrwt>
<pdfrwt beam="1">  1        2 0.97439049E-01 0.27085825E+03</pdfrwt>
<pdfrwt beam="2">  1       -2 0.44551711E-02 0.27085825E+03</pdfrwt>
<totfact> 0.10989292E+04</totfact>
</mgrwt>
</event>
<event>
 8      1 +1.6198320e-01 3.13590500e+02 7.81860800e-03 1.07863800e-01
       -1 -1    0    0    0  501 -0.0000000000e+00 +0.0000000000e+00 +1.1481451046e+01 1.1481452152e+01 5.0400000000e-03 0.0000e+00 1.0000e+00
        1 -1    0    0  501    0 +0.0000000000e+00 -0.0000000000e+00 -2.1412578744e+03 2.1412578745e+03 5.0400000000e-03 0.0000e+00 -1.0000e+00
  1000101  2    1    2    0    0 -4.7831489081e+01 -5.6844255291e+01 -1.4660907422e+03 1.4732926401e+03 1.2510003302e+02 1.4862e+02 0.0000e+00
 -1000101  2    1    2    0    0 +4.7831489081e+01 +5.6844255291e+01 -6.6368568118e+02 6.7944668650e+02 1.2509994277e+02 1.5980e+02 0.0000e+00
       11  1    3    3    0    0 +2.2130492523e-02 -1.0122788693e-01 -6.1464158855e-01 6.2331483802e-01 5.1100000000e-04 0.0000e+00 1.0000e+00
      255  1    3    3    0    0 -4.7853619573e+01 -5.6743027404e+01 -1.4654761006e+03 1.4726693253e+03 1.2500000000e+02 0.0000e+00 0.0000e+00
      -11  1    4    4    0    0 +3.5576766813e-02 +1.5142922589e-01 -6.2453076313e-01 6.4361125845e-01 5.1100000000e-04 0.0000e+00 -1.0000e+00
      255  1    4    4    0    0 +4.7795912314e+01 +5.6692826065e+01 -6.6306115042e+02 6.7880307524e+02 1.2500000000e+02 0.0000e+00 0.0000e+00
<mgrwt>
<rscale>  0 0.31359049E+03</rscale>
<asrwt>0</asrwt>
<pdfrwt beam="1">  1        1 0.32942397E+00 0.31359049E+03</pdfrwt>
<pdfrwt beam="2">  1       -1 0.17663789E-02 0.31359049E+03</pdfrwt>
<totfact> 0.22409959E+03</totfact>
</mgrwt>
</event>
<event>
 8      1 +1.6198320e-01 2.55294700e+02 7.81860800e-03 1.11000400e-01
        2 -1    0    0  501    0 +0.0000000000e+00 +0.0000000000e+00 +4.2985699707e+02 4.2985699708e+02 2.5500000000e-03 0.0000e+00 1.0000e+00
       -2 -1    0    0    0  501 -0.0000000000e+00 -0.0000000000e+00 -3.7905273201e+01 3.7905273287e+01 2.5500000000e-03 0.0000e+00 -1.0000e+00
  1000101  2    1    2    0    0 -2.2197538170e-01 +1.5037050823e+01 +1.5853016346e+02 2.0250428116e+02 1.2509999597e+02 2.7629e+01 0.0000e+00
 -1000101  2    1    2    0    0 +2.2197538170e-01 -1.5037050823e+01 +2.3342156041e+02 2.6525798920e+02 1.2510001519e+02 8.8706e+01 0.0000e+00
       11  1    3    3    0    0 -2.5374665336e-02 +7.3902471443e-03 +2.8130879509e-01 2.8254802903e-01 5.1100000000e-04 0.0000e+00 1.0000e+00
      255  1    3    3    0    0 -1.9660071636e-01 +1.5029660575e+01 +1.5824885467e+02 2.0222173314e+02 1.2500000000e+02 0.0000e+00 0.0000e+00
      -11  1    4    4    0    0 -4.9599570005e-02 -7.2070248440e-02 +6.7165511305e-02 1.1029825513e-01 5.1100000000e-04 0.0000e+00 -1.0000e+00
      255  1    4    4    0    0 +2.7157495170e-01 -1.4964980574e+01 +2.3335439490e+02 2.6514769095e+02 1.2500000000e+02 0.0000e+00 0.0000e+00
<mgrwt>
<rscale>  0 0.25529471E+03</rscale>
<asrwt>0</asrwt>
<pdfrwt beam="1">  1        2 0.66131851E-01 0.25529471E+03</pdfrwt>
<pdfrwt beam="2">  1       -2 0.58315800E-02 0.25529471E+03</pdfrwt>
<totfact> 0.11276625E+04</totfact>
</mgrwt>
</event>
<event>
 8      1 +1.6198320e-01 3.07852200e+02 7.81860800e-03 1.08138000e-01
        2 -1    0    0  501    0 +0.0000000000e+00 +0.0000000000e+00 +3.4515751799e+03 3.4515751800e+03 2.5500000000e-03 0.0000e+00 1.0000e+00
       -2 -1    0    0    0  501 -0.0000000000e+00 -0.0000000000e+00 -6.8644737544e+00 6.8644742281e+00 2.5500000000e-03 0.0000e+00 -1.0000e+00
  1000101  2    1    2    0    0 -6.2909717928e+01 +4.0218232047e+01 +2.2804641798e+03 2.2851131343e+03 1.2510004825e+02 2.2965e+01 0.0000e+00
 -1000101  2    1    2    0    0 +6.2909717928e+01 -4.0218232047e+01 +1.1642465264e+03 1.1733265199e+03 1.2509999759e+02 1.6491e+01 0.0000e+00
       11  1    3    3    0    0 -5.4995001556e-02 -5.4274546644e-02 +2.3385228318e+00 2.3397990240e+00 5.1100000000e-04 0.0000e+00 1.0000e+00
      255  1    3    3    0    0 -6.2854722926e+01 +4.0272506594e+01 +2.2781256570e+03 2.2827733352e+03 1.2500000000e+02 0.0000e+00 0.0000e+00
      -11  1    4    4    0    0 +1.3102804073e-01 -6.4170310663e-02 +1.8110217025e+00 1.8168891117e+00 5.1100000000e-04 0.0000e+00 -1.0000e+00
      255  1    4    4    0    0 +6.2778689887e+01 -4.0154061737e+01 +1.1624355047e+03 1.1715096308e+03 1.2500000000e+02 0.0000e+00 0.0000e+00
<mgrwt>
<rscale>  0 0.30785222E+03</rscale>
<asrwt>0</asrwt>
<pdfrwt beam="1">  1        2 0.53101239E+00 0.30785222E+03</pdfrwt>
<pdfrwt beam="2">  1       -2 0.10560713E-02 0.30785222E+03</pdfrwt>
<totfact> 0.21394922E+03</totfact>
</mgrwt>
</event>
<event>
 8      1 +1.6198320e-01 3.39066800e+02 7.81860800e-03 1.06719400e-01
        2 -1    0    0  501    0 +0.0000000000e+00 +0.0000000000e+00 +3.3177815737e+03 3.3177815737e+03 2.5500000000e-03 0.0000e+00 1.0000e+00
       -2 -1    0    0    0  501 -0.0000000000e+00 -0.0000000000e+00 -8.6628913657e+00 8.6628917410e+00 2.5500000000e-03 0.0000e+00 -1.0000e+00
  1000101  2    1    2    0    0 -9.8580048817e+00 +1.0017944468e+02 +2.1881750200e+03 2.1940585756e+03 1.2510001476e+02 4.3092e+00 0.0000e+00
 -1000101  2    1    2    0    0 +9.8580048817e+00 -1.0017944468e+02 +1.1209436624e+03 1.1323858899e+03 1.2509999181e+02 1.2268e+00 0.0000e+00
       11  1    3    3    0    0 +1.4740766591e-02 +1.7377306396e-01 +3.3862686200e+00 3.3907565227e+00 5.1100000000e-04 0.0000e+00 1.0000e+00
      255  1    3    3    0    0 -9.8727456483e+00 +1.0000567162e+02 +2.1847887513e+03 2.1906678190e+03 1.2500000000e+02 0.0000e+00 0.0000e+00
      -11  1    4    4    0    0 +7.1591626937e-02 +1.4649190592e-02 +4.9129517887e-01 4.9670028562e-01 5.1100000000e-04 0.0000e+00 -1.0000e+00
      255  1    4    4    0    0 +9.7864132548e+00 -1.0019409387e+02 +1.1204523672e+03 1.1318891896e+03 1.2500000000e+02 0.0000e+00 0.0000e+00
<mgrwt>
<rscale>  0 0.33906685E+03</rscale>
<asrwt>0</asrwt>
<pdfrwt beam="1">  1        2 0.51042867E+00 0.33906685E+03</pdfrwt>
<pdfrwt beam="2">  1       -2 0.13327506E-02 0.33906685E+03</pdfrwt>
<totfact> 0.18498844E+03</totfact>
</mgrwt>
</event>
<event>
 8      1 +1.6198320e-01 3.21080100e+02 7.81860800e-03 1.07515300e-01
        2 -1    0    0  501    0 +0.0000000000e+00 +0.0000000000e+00 +4.0790296165e+02 4.0790296166e+02 2.5500000000e-03 0.0000e+00 1.0000e+00
       -2 -1    0    0    0  501 -0.0000000000e+00 -0.0000000000e+00 -6.3184395256e+01 6.3184395307e+01 2.5500000000e-03 0.0000e+00 -1.0000e+00
  1000101  2    1    2    0    0 -2.9477664934e+01 -9.3465255373e+01 +2.0576508290e+02 2.5998838479e+02 1.2509997679e+02 2.2388e+01 0.0000e+00
 -1000101  2    1    2    0    0 +2.9477664934e+01 +9.3465255373e+01 +1.3895348350e+02 2.1109897218e+02 1.2510003512e+02 2.2688e+02 0.0000e+00
       11  1    3    3    0    0 -3.2737981932e-02 -1.6560736281e-01 +1.2393909427e-01 2.0942477000e-01 5.1100000000e-04 0.0000e+00 1.0000e+00
      255  1    3    3    0    0 -2.9444926952e+01 -9.3299648010e+01 +2.0564114381e+02 2.5977896002e+02 1.2500000000e+02 0.0000e+00 0.0000e+00
      -11  1    4    4    0    0 +7.2060630475e-05 +8.7163275525e-02 -1.4443363175e-02 8.8353345462e-02 5.1100000000e-04 0.0000e+00 -1.0000e+00
      255  1    4    4    0    0 +2.9477592874e+01 +9.3378092097e+01 +1.3896792686e+02 2.1101061883e+02 1.2500000000e+02 0.0000e+00 0.0000e+00
<mgrwt>
<rscale>  0 0.32108006E+03</rscale>
<asrwt>0</asrwt>
<pdfrwt beam="1">  1        2 0.62754301E-01 0.32108006E+03</pdfrwt>
<pdfrwt beam="2">  1       -2 0.97206763E-02 0.32108006E+03</pdfrwt>
<totfact> 0.54287275E+03</totfact>
</mgrwt>
</event>
<event>
 8      1 +1.6198320e-01 4.14778300e+02 7.81860800e-03 1.03877900e-01
       -2 -1    0    0    0  501 -0.0000000000e+00 +0.0000000000e+00 +3.8211656711e+01 3.8211656796e+01 2.5500000000e-03 0.0000e+00 1.0000e+00
        2 -1    0    0  501    0 +0.0000000000e+00 -0.0000000000e+00 -1.1255795767e+03 1.1255795767e+03 2.5500000000e-03 0.0000e+00 -1.0000e+00
  1000101  2    1    2    0    0 +3.1280123809e+01 -4.7759631759e+01 -1.0809715497e+02 1.7491274119e+02 1.2510013408e+02 2.1215e+02 0.0000e+00
 -1000101  2    1    2    0    0 -3.1280123809e+01 +4.7759631759e+01 -9.7927076504e+02 9.8887849233e+02 1.2510001101e+02 2.0536e+01 0.0000e+00
       11  1    3    3    0    0 +3.9050593122e-02 -9.1305365372e-02 +6.4508935336e-03 9.9516298755e-02 5.1100000000e-04 0.0000e+00 1.0000e+00
      255  1    3    3    0    0 +3.1241073216e+01 -4.7668326394e+01 -1.0810360587e+02 1.7481322489e+02 1.2500000000e+02 0.0000e+00 0.0000e+00
      -11  1    4    4    0    0 +1.6745556790e-03 +5.7630617009e-02 -1.4660805043e+00 1.4672138216e+00 5.1100000000e-04 0.0000e+00 -1.0000e+00
      255  1    4    4    0    0 -3.1281798364e+01 +4.7702001142e+01 -9.7780468454e+02 9.8741127851e+02 1.2500000000e+02 0.0000e+00 0.0000e+00
<mgrwt>
<rscale>  0 0.41477830E+03</rscale>
<asrwt>0</asrwt>
<pdfrwt beam="1">  1        2 0.17316606E+00 0.41477830E+03</pdfrwt>
<pdfrwt beam="2">  1       -2 0.58787173E-02 0.41477830E+03</pdfrwt>
<totfact> 0.33809550E+03</totfact>
</mgrwt>
</event>
<event>
 8      1 +1.6198320e-01 2.73002000e+02 7.81860800e-03 1.09957400e-01
        2 -1    0    0  501    0 +0.0000000000e+00 +0.0000000000e+00 +6.8801887589e+02 6.8801887590e+02 2.5500000000e-03 0.0000e+00 1.0000e+00
       -2 -1    0    0    0  501 -0.0000000000e+00 -0.0000000000e+00 -2.7081411310e+01 2.7081411430e+01 2.5500000000e-03 0.0000e+00 -1.0000e+00
  1000101  2    1    2    0    0 -7.7557281973e+00 +1.9130454141e+01 +4.6290600878e+02 4.7995635724e+02 1.2509998521e+02 2.2567e+02 0.0000e+00
 -1000101  2    1    2    0    0 +7.7557281973e+00 -1.9130454141e+01 +1.9803145581e+02 2.3514393009e+02 1.2510029885e+02 2.1154e+02 0.0000e+00
       11  1    3    3    0    0 +3.6681514728e-02 +1.0507035037e-01 +4.6430370536e-01 4.7745523767e-01 5.1100000000e-04 0.0000e+00 1.0000e+00
      255  1    3    3    0    0 -7.7924097121e+00 +1.9025383791e+01 +4.6244170507e+02 4.7947890200e+02 1.2500000000e+02 0.0000e+00 0.0000e+00
      -11  1    4    4    0    0 +4.5315081348e-02 -1.0891963464e-01 +1.7326058987e-01 2.0961020141e-01 5.1100000000e-04 0.0000e+00 -1.0000e+00
      255  1    4    4    0    0 +7.7104131160e+00 -1.9021534507e+01 +1.9785819522e+02 2.3493431989e+02 1.2500000000e+02 0.0000e+00 0.0000e+00
<mgrwt>
<rscale>  0 0.27300199E+03</rscale>
<asrwt>0</asrwt>
<pdfrwt beam="1">  1        2 0.10584907E+00 0.27300199E+03</pdfrwt>
<pdfrwt beam="2">  1       -2 0.41663705E-02 0.27300199E+03</pdfrwt>
<totfact> 0.11019708E+04</totfact>
</mgrwt>
</event>
<event>
 8      1 +1.6198320e-01 3.35513300e+02 7.81860800e-03 1.06872300e-01
        2 -1    0    0  501    0 +0.0000000000e+00 +0.0000000000e+00 +1.1792232194e+02 1.1792232196e+02 2.5500000000e-03 0.0000e+00 1.0000e+00
       -2 -1    0    0    0  501 -0.0000000000e+00 -0.0000000000e+00 -2.3865118138e+02 2.3865118139e+02 2.5500000000e-03 0.0000e+00 -1.0000e+00
  1000101  2    1    2    0    0 +1.0190136876e+02 +4.0771267412e+01 -8.2813135815e+01 1.8588759400e+02 1.2509994780e+02 3.9621e+01 0.0000e+00
 -1000101  2    1    2    0    0 -1.0190136876e+02 -4.0771267412e+01 -3.7915723625e+01 1.7068590935e+02 1.2509952978e+02 1.0300e+02 0.0000e+00
       11  1    3    3    0    0 +9.6363010080e-02 +6.0598569897e-02 +3.3179778616e-02 1.1857139291e-01 5.1100000000e-04 0.0000e+00 1.0000e+00
      255  1    3    3    0    0 +1.0180500575e+02 +4.0710668843e+01 -8.2846315593e+01 1.8576902261e+02 1.2500000000e+02 0.0000e+00 0.0000e+00
      -11  1    4    4    0    0 -8.8838799577e-02 -5.6757669381e-02 -1.3182827407e-01 1.6879786820e-01 5.1100000000e-04 0.0000e+00 -1.0000e+00
      255  1    4    4    0    0 -1.0181252996e+02 -4.0714509743e+01 -3.7783895351e+01 1.7051711148e+02 1.2500000000e+02 0.0000e+00 0.0000e+00
<mgrwt>
<rscale>  0 0.33551335E+03</rscale>
<asrwt>0</asrwt>
<pdfrwt beam="1">  1        2 0.18141896E-01 0.33551335E+03</pdfrwt>
<pdfrwt beam="2">  1       -2 0.36715566E-01 0.33551335E+03</pdfrwt>
<totfact> 0.21910656E+03</totfact>
</mgrwt>
</event>
<event>
 8      1 +1.6198320e-01 2.88879200e+02 7.81860800e-03 1.09093600e-01
       -2 -1    0    0    0  501 -0.0000000000e+00 +0.0000000000e+00 +1.2766244400e+01 1.2766244655e+01 2.5500000000e-03 0.0000e+00 -1.0000e+00
        2 -1    0    0  501    0 +0.0000000000e+00 -0.0000000000e+00 -1.6342161961e+03 1.6342161961e+03 2.5500000000e-03 0.0000e+00 1.0000e+00
  1000101  2    1    2    0    0 -1.8245791446e+01 -6.9782769356e+01 -8.2880273489e+02 8.4128887637e+02 1.2510178393e+02 2.8508e+02 0.0000e+00
 -1000101  2    1    2    0    0 +1.8245791446e+01 +6.9782769356e+01 -7.9264721681e+02 8.0569356438e+02 1.2509982242e+02 1.8513e+00 0.0000e+00
       11  1    3    3    0    0 +8.3435141572e-02 -7.8831965288e-02 -7.4825288045e-01 7.5700629840e-01 5.1100000000e-04 0.0000e+00 1.0000e+00
      255  1    3    3    0    0 -1.8329226588e+01 -6.9703937391e+01 -8.2805448201e+02 8.4053187007e+02 1.2500000000e+02 0.0000e+00 0.0000e+00
      -11  1    4    4    0    0 +1.1311501301e-01 +4.3098548272e-02 -6.0493324605e-01 6.1692542850e-01 5.1100000000e-04 0.0000e+00 -1.0000e+00
      255  1    4    4    0    0 +1.8132676433e+01 +6.9739670808e+01 -7.9204228356e+02 8.0507663895e+02 1.2500000000e+02 0.0000e+00 0.0000e+00
<mgrwt>
<rscale>  0 0.28887924E+03</rscale>
<asrwt>0</asrwt>
<pdfrwt beam="1">  1        2 0.25141771E+00 0.28887924E+03</pdfrwt>
<pdfrwt beam="2">  1       -2 0.19640389E-02 0.28887924E+03</pdfrwt>
<totfact> 0.91985614E+03</totfact>
</mgrwt>
</event>
<event>
 8      1 +1.6198320e-01 2.69390600e+02 7.81860800e-03 1.10162900e-01
       -2 -1    0    0    0  501 -0.0000000000e+00 +0.0000000000e+00 +6.9017195523e+01 6.9017195570e+01 2.5500000000e-03 0.0000e+00 -1.0000e+00
        2 -1    0    0  501    0 +0.0000000000e+00 -0.0000000000e+00 -2.6287388858e+02 2.6287388859e+02 2.5500000000e-03 0.0000e+00 1.0000e+00
  1000101  2    1    2    0    0 -2.4202993106e+01 +4.3448714990e+01 -1.0233027565e+02 1.6910072118e+02 1.2509993157e+02 4.5199e+01 0.0000e+00
 -1000101  2    1    2    0    0 +2.4202993106e+01 -4.3448714990e+01 -9.1526417405e+01 1.6279036298e+02 1.2510012585e+02 1.2075e+01 0.0000e+00
       11  1    3    3    0    0 +6.3431084063e-02 +4.1199230274e-02 -3.8474965334e-04 7.5639197212e-02 5.1100000000e-04 0.0000e+00 1.0000e+00
      255  1    3    3    0    0 -2.4266424190e+01 +4.3407515760e+01 -1.0232989090e+02 1.6902508198e+02 1.2500000000e+02 0.0000e+00 0.0000e+00
      -11  1    4    4    0    0 -6.9318466383e-02 -7.2785061828e-02 -3.8281005152e-02 1.0755655017e-01 5.1100000000e-04 0.0000e+00 -1.0000e+00
      255  1    4    4    0    0 +2.4272311573e+01 -4.3375929928e+01 -9.1488136400e+01 1.6268280643e+02 1.2500000000e+02 0.0000e+00 0.0000e+00
<mgrwt>
<rscale>  0 0.26939056E+03</rscale>
<asrwt>0</asrwt>
<pdfrwt beam="1">  1        2 0.40442136E-01 0.26939056E+03</pdfrwt>
<pdfrwt beam="2">  1       -2 0.10618030E-01 0.26939056E+03</pdfrwt>
<totfact> 0.75411814E+03</totfact>
</mgrwt>
</event>
<event>
 8      1 +1.6198320e-01 3.34467500e+02 7.81860800e-03 1.06917700e-01
       -2 -1    0    0    0  501 -0.0000000000e+00 +0.0000000000e+00 +2.5509997340e+02 2.5509997341e+02 2.5500000000e-03 0.0000e+00 -1.0000e+00
        2 -1    0    0  501    0 +0.0000000000e+00 -0.0000000000e+00 -1.0963202294e+02 1.0963202297e+02 2.5500000000e-03 0.0000e+00 1.0000e+00
  1000101  2    1    2    0    0 -9.1477578491e+01 -5.1447246932e+01 +1.1208458533e+02 1.9806041522e+02 1.2509998890e+02 8.7755e+01 0.0000e+00
 -1000101  2    1    2    0    0 +9.1477578491e+01 +5.1447246932e+01 +3.3383365131e+01 1.6667158116e+02 1.2509996129e+02 2.3251e+02 0.0000e+00
       11  1    3    3    0    0 +1.2772347230e-03 +5.7637258905e-02 +3.6907763832e-02 6.8455307282e-02 5.1100000000e-04 0.0000e+00 1.0000e+00
      255  1    3    3    0    0 -9.1478855726e+01 -5.1504884190e+01 +1.1204767757e+02 1.9799195991e+02 1.2500000000e+02 0.0000e+00 0.0000e+00
      -11  1    4    4    0    0 -4.1858959469e-02 +5.4793982555e-02 +2.8683876366e-02 7.4683190190e-02 5.1100000000e-04 0.0000e+00 -1.0000e+00
      255  1    4    4    0    0 +9.1519437450e+01 +5.1392452949e+01 +3.3354681255e+01 1.6659689797e+02 1.2500000000e+02 0.0000e+00 0.0000e+00
<mgrwt>
<rscale>  0 0.33446749E+03</rscale>
<asrwt>0</asrwt>
<pdfrwt beam="1">  1        2 0.16866465E-01 0.33446749E+03</pdfrwt>
<pdfrwt beam="2">  1       -2 0.39246150E-01 0.33446749E+03</pdfrwt>
<totfact> 0.21023564E+03</totfact>
</mgrwt>
</event>
<event>
 8      1 +1.6198320e-01 3.66590500e+02 7.81860800e-03 1.05600400e-01
        2 -1    0    0  501    0 +0.0000000000e+00 +0.0000000000e+00 +1.8184554658e+02 1.8184554660e+02 2.5500000000e-03 0.0000e+00 -1.0000e+00
       -2 -1    0    0    0  501 -0.0000000000e+00 -0.0000000000e+00 -1.8475648021e+02 1.8475648023e+02 2.5500000000e-03 0.0000e+00 1.0000e+00
  1000101  2    1    2    0    0 -3.0674186653e+00 +9.6825248580e+01 +9.1081720957e+01 1.8256624125e+02 1.2510001891e+02 1.0571e+02 0.0000e+00
 -1000101  2    1    2    0    0 +3.0674186653e+00 -9.6825248580e+01 -9.3992654591e+01 1.8403578558e+02 1.2510001373e+02 1.1393e+01 0.0000e+00
       11  1    3    3    0    0 -5.8167362060e-02 -2.4778101179e-02 +5.4890138844e-02 8.3729234860e-02 5.1100000000e-04 0.0000e+00 1.0000e+00
      255  1    3    3    0    0 -3.0092513032e+00 +9.6850026681e+01 +9.1026830819e+01 1.8248251201e+02 1.2500000000e+02 0.0000e+00 0.0000e+00
      -11  1    4    4    0    0 +2.2009413719e-02 -2.0162700110e-01 -1.1627822045e-01 2.3379210324e-01 5.1100000000e-04 0.0000e+00 -1.0000e+00
      255  1    4    4    0    0 +3.0454092516e+00 -9.6623621579e+01 -9.3876376371e+01 1.8380199347e+02 1.2500000000e+02 0.0000e+00 0.0000e+00
<mgrwt>
<rscale>  0 0.36659047E+03</rscale>
<asrwt>0</asrwt>
<pdfrwt beam="1">  1        2 0.27976238E-01 0.36659047E+03</pdfrwt>
<pdfrwt beam="2">  1       -2 0.28424074E-01 0.36659047E+03</pdfrwt>
<totfact> 0.21507953E+03</totfact>
</mgrwt>
</event>
<event>
 8      1 +1.6198320e-01 3.41535500e+02 7.81860800e-03 1.06614400e-01
        2 -1    0    0  501    0 +0.0000000000e+00 +0.0000000000e+00 +9.3944939694e+01 9.3944939728e+01 2.5500000000e-03 0.0000e+00 -1.0000e+00
       -2 -1    0    0    0  501 -0.0000000000e+00 -0.0000000000e+00 -3.1041194146e+02 3.1041194147e+02 2.5500000000e-03 0.0000e+00 1.0000e+00
  1000101  2    1    2    0    0 +9.1262707311e+01 +6.5222720908e+01 -7.2149916291e+01 1.8286221850e+02 1.2510034159e+02 3.5601e+01 0.0000e+00
 -1000101  2    1    2    0    0 -9.1262707311e+01 -6.5222720908e+01 -1.4431708548e+02 2.2149466270e+02 1.2509827887e+02 8.7505e+01 0.0000e+00
       11  1    3    3    0    0 +1.1566983470e-02 -2.9957485502e-02 +3.7097861049e-02 4.9068915414e-02 5.1100000000e-04 0.0000e+00 1.0000e+00
      255  1    3    3    0    0 +9.1251140328e+01 +6.5252678393e+01 -7.2187014152e+01 1.8281314958e+02 1.2500000000e+02 0.0000e+00 0.0000e+00
      -11  1    4    4    0    0 -8.8067608157e-02 -8.5948528707e-02 -9.7679986361e-03 1.2344524338e-01 5.1100000000e-04 0.0000e+00 -1.0000e+00
      255  1    4    4    0    0 -9.1174639703e+01 -6.5136772379e+01 -1.4430731748e+02 2.2137121746e+02 1.2500000000e+02 0.0000e+00 0.0000e+00
<mgrwt>
<rscale>  0 0.34153554E+03</rscale>
<asrwt>0</asrwt>
<pdfrwt beam="1">  1        2 0.14453068E-01 0.34153554E+03</pdfrwt>
<pdfrwt beam="2">  1       -2 0.47755683E-01 0.34153554E+03</pdfrwt>
<totfact> 0.17236982E+03</totfact>
</mgrwt>
</event>
<event>
 8      1 +1.6198320e-01 3.22100900e+02 7.81860800e-03 1.07468600e-01
       -2 -1    0    0    0  501 -0.0000000000e+00 +0.0000000000e+00 +5.0087059772e+01 5.0087059837e+01 2.5500000000e-03 0.0000e+00 -1.0000e+00
        2 -1    0    0  501    0 +0.0000000000e+00 -0.0000000000e+00 -5.1784327604e+02 5.1784327605e+02 2.5500000000e-03 0.0000e+00 1.0000e+00
  1000101  2    1    2    0    0 +1.4916030219e+01 +9.3920898450e+01 -2.9605695620e+02 3.3517660955e+02 1.2510002058e+02 9.0695e+01 0.0000e+00
 -1000101  2    1    2    0    0 -1.4916030219e+01 -9.3920898450e+01 -1.7169926007e+02 2.3275372633e+02 1.2510011228e+02 4.7369e+01 0.0000e+00
       11  1    3    3    0    0 -4.4214487452e-02 -1.6772562444e-02 -2.6893957121e-02 5.4403913481e-02 5.1100000000e-04 0.0000e+00 1.0000e+00
      255  1    3    3    0    0 +1.4960244706e+01 +9.3937671013e+01 -2.9603006225e+02 3.3512220564e+02 1.2500000000e+02 0.0000e+00 0.0000e+00
      -11  1    4    4    0    0 -7.8940308412e-02 -6.0279203715e-02 -2.4252989107e-01 2.6208045306e-01 5.1100000000e-04 0.0000e+00 -1.0000e+00
      255  1    4    4    0    0 -1.4837089910e+01 -9.3860619246e+01 -1.7145673017e+02 2.3249164588e+02 1.2500000000e+02 0.0000e+00 0.0000e+00
<mgrwt>
<rscale>  0 0.32210090E+03</rscale>
<asrwt>0</asrwt>
<pdfrwt beam="1">  1        2 0.79668192E-01 0.32210090E+03</pdfrwt>
<pdfrwt beam="2">  1       -2 0.77057019E-02 0.32210090E+03</pdfrwt>
<totfact> 0.60073329E+03</totfact>
</mgrwt>
</event>
<event>
 8      1 +1.6198320e-01 4.66906800e+02 7.81860800e-03 1.02279700e-01
        2 -1    0    0  501    0 +0.0000000000e+00 +0.0000000000e+00 +1.8645508961e+03 1.8645508961e+03 2.5500000000e-03 0.0000e+00 1.0000e+00
       -2 -1    0    0    0  501 -0.0000000000e+00 -0.0000000000e+00 -2.9229826632e+01 2.9229826743e+01 2.5500000000e-03 0.0000e+00 -1.0000e+00
  1000101  2    1    2    0    0 +7.2950878724e+01 +1.0636021623e+02 +3.1310824647e+02 3.6100016247e+02 1.2510002793e+02 4.8495e+01 0.0000e+00
 -1000101  2    1    2    0    0 -7.2950878724e+01 -1.0636021623e+02 +1.5222128230e+03 1.5327805604e+03 1.2510012581e+02 2.2634e+01 0.0000e+00
       11  1    3    3    0    0 +4.2406357341e-02 -4.2479077174e-02 +7.8916226786e-02 9.9150406516e-02 5.1100000000e-04 0.0000e+00 1.0000e+00
      255  1    3    3    0    0 +7.2908472367e+01 +1.0640269531e+02 +3.1302933025e+02 3.6090101206e+02 1.2500000000e+02 0.0000e+00 0.0000e+00
      -11  1    4    4    0    0 -5.4754912092e-02 -1.8067917645e-01 +1.1516981094e+00 1.1670697757e+00 5.1100000000e-04 0.0000e+00 -1.0000e+00
      255  1    4    4    0    0 -7.2896123812e+01 -1.0617953706e+02 +1.5210611249e+03 1.5316134906e+03 1.2500000000e+02 0.0000e+00 0.0000e+00
<mgrwt>
<rscale>  0 0.46690684E+03</rscale>
<asrwt>0</asrwt>
<pdfrwt beam="1">  1        2 0.28685397E+00 0.46690684E+03</pdfrwt>
<pdfrwt beam="2">  1       -2 0.44968967E-02 0.46690684E+03</pdfrwt>
<totfact> 0.19952074E+03</totfact>
</mgrwt>
</event>
<event>
 8      1 +1.6198320e-01 3.00682100e+02 7.81860800e-03 1.08490000e-01
        2 -1    0    0  501    0 +0.0000000000e+00 +0.0000000000e+00 +7.0501364240e+02 7.0501364241e+02 2.5500000000e-03 0.0000e+00 1.0000e+00
       -2 -1    0    0    0  501 -0.0000000000e+00 -0.0000000000e+00 -3.2059571070e+01 3.2059571171e+01 2.5500000000e-03 0.0000e+00 -1.0000e+00
  1000101  2    1    2    0    0 +5.5882184323e+01 -5.3001870828e+01 +4.1477847919e+02 4.4002667627e+02 1.2510104796e+02 2.7478e+02 0.0000e+00
 -1000101  2    1    2    0    0 -5.5882184323e+01 +5.3001870828e+01 +2.5817559215e+02 2.9704653731e+02 1.2509992849e+02 5.2082e+00 0.0000e+00
       11  1    3    3    0    0 +5.8224736118e-02 +5.4243747286e-02 +1.3351908463e-01 1.5543523120e-01 5.1100000000e-04 0.0000e+00 1.0000e+00
      255  1    3    3    0    0 +5.5823959587e+01 -5.3056114575e+01 +4.1464496010e+02 4.3987124104e+02 1.2500000000e+02 0.0000e+00 0.0000e+00
      -11  1    4    4    0    0 -1.5058470350e-01 +3.8250919845e-02 +2.4301545510e-01 2.8843657593e-01 5.1100000000e-04 0.0000e+00 -1.0000e+00
      255  1    4    4    0    0 -5.5731599619e+01 +5.2963619908e+01 +2.5793257669e+02 2.9675810073e+02 1.2500000000e+02 0.0000e+00 0.0000e+00
<mgrwt>
<rscale>  0 0.30068212E+03</rscale>
<asrwt>0</asrwt>
<pdfrwt beam="1">  1        2 0.10846364E+00 0.30068212E+03</pdfrwt>
<pdfrwt beam="2">  1       -2 0.49322416E-02 0.30068212E+03</pdfrwt>
<totfact> 0.83117160E+03</totfact>
</mgrwt>
</event>
<event>
 8      1 +1.6198320e-01 3.14953500e+02 7.81860800e-03 1.07799600e-01
       -2 -1    0    0    0  501 -0.0000000000e+00 +0.0000000000e+00 +3.3704326618e+01 3.3704326714e+01 2.5500000000e-03 0.0000e+00 -1.0000e+00
        2 -1    0    0  501    0 +0.0000000000e+00 -0.0000000000e+00 -7.3577873869e+02 7.3577873870e+02 2.5500000000e-03 0.0000e+00 1.0000e+00
  1000101  2    1    2    0    0 +4.1813844323e+00 +1.0872952615e+01 -1.1908829293e+02 1.7311193433e+02 1.2510002085e+02 1.4449e+02 0.0000e+00
 -1000101  2    1    2    0    0 -4.1813844323e+00 -1.0872952615e+01 -5.8298611914e+02 5.9637113109e+02 1.2509998324e+02 2.3011e+00 0.0000e+00
       11  1    3    3    0    0 -1.5423783256e-02 +1.0525960953e-01 -1.2928721649e-01 1.6743035554e-01 5.1100000000e-04 0.0000e+00 1.0000e+00
      255  1    3    3    0    0 +4.1968082155e+00 +1.0767693006e+01 -1.1895900572e+02 1.7294450397e+02 1.2500000000e+02 0.0000e+00 0.0000e+00
      -11  1    4    4    0    0 -4.0277752135e-02 +4.8201673394e-02 -9.9762339842e-02 1.1789183266e-01 5.1100000000e-04 0.0000e+00 -1.0000e+00
      255  1    4    4    0    0 -4.1411066802e+00 -1.0921154289e+01 -5.8288635680e+02 5.9625323925e+02 1.2500000000e+02 0.0000e+00 0.0000e+00
<mgrwt>
<rscale>  0 0.31495350E+03</rscale>
<asrwt>0</asrwt>
<pdfrwt beam="1">  1        2 0.11319672E+00 0.31495350E+03</pdfrwt>
<pdfrwt beam="2">  1       -2 0.51852816E-02 0.31495350E+03</pdfrwt>
<totfact> 0.73159931E+03</totfact>
</mgrwt>
</event>
<event>
 8      1 +1.6198320e-01 3.00713800e+02 7.81860800e-03 1.08488400e-01
        2 -1    0    0  501    0 +0.0000000000e+00 +0.0000000000e+00 +1.5861515354e+02 1.5861515356e+02 2.5500000000e-03 0.0000e+00 1.0000e+00
       -2 -1    0    0    0  501 -0.0000000000e+00 -0.0000000000e+00 -1.4252861135e+02 1.4252861138e+02 2.5500000000e-03 0.0000e+00 -1.0000e+00
  1000101  2    1    2    0    0 -3.7900012554e+01 +5.6277492678e+01 -4.0540141948e+01 1.4797670362e+02 1.2510009821e+02 1.6893e+01 0.0000e+00
 -1000101  2    1    2    0    0 +3.7900012554e+01 -5.6277492678e+01 +5.6626684133e+01 1.5316706132e+02 1.2509996076e+02 5.1734e+01 0.0000e+00
       11  1    3    3    0    0 -1.2811062892e-01 +3.5913598487e-02 -6.9455367027e-02 1.5008807057e-01 5.1100000000e-04 0.0000e+00 1.0000e+00
      255  1    3    3    0    0 -3.7771901925e+01 +5.6241579080e+01 -4.0470686581e+01 1.4782661555e+02 1.2500000000e+02 0.0000e+00 0.0000e+00
      -11  1    4    4    0    0 +1.0300355804e-01 +2.4015404083e-02 +4.2532675231e-02 1.1399895695e-01 5.1100000000e-04 0.0000e+00 -1.0000e+00
      255  1    4    4    0    0 +3.7797008996e+01 -5.6301508082e+01 +5.6584151458e+01 1.5305306236e+02 1.2500000000e+02 0.0000e+00 0.0000e+00
<mgrwt>
<rscale>  0 0.30071380E+03</rscale>
<asrwt>0</asrwt>
<pdfrwt beam="1">  1        2 0.24402331E-01 0.30071380E+03</pdfrwt>
<pdfrwt beam="2">  1       -2 0.21927479E-01 0.30071380E+03</pdfrwt>
<totfact> 0.39532548E+03</totfact>
</mgrwt>
</event>
<event>
 8      1 +1.6198320e-01 3.23098500e+02 7.81860800e-03 1.07423200e-01
        2 -1    0    0  501    0 +0.0000000000e+00 +0.0000000000e+00 +7.5170825964e+02 7.5170825964e+02 2.5500000000e-03 0.0000e+00 1.0000e+00
       -2 -1    0    0    0  501 -0.0000000000e+00 -0.0000000000e+00 -3.4718463748e+01 3.4718463842e+01 2.5500000000e-03 0.0000e+00 -1.0000e+00
  1000101  2    1    2    0    0 +2.1013567967e+01 +3.5372320001e+01 +1.3074362120e+02 1.8557122354e+02 1.2510001384e+02 1.2063e+01 0.0000e+00
 -1000101  2    1    2    0    0 -2.1013567967e+01 -3.5372320001e+01 +5.8624617469e+02 6.0085549994e+02 1.2509989372e+02 2.7463e+01 0.0000e+00
       11  1    3    3    0    0 +1.4088590962e-02 -7.2737801504e-02 +1.1000820692e-01 1.3263235983e-01 5.1100000000e-04 0.0000e+00 1.0000e+00
      255  1    3    3    0    0 +2.0999479376e+01 +3.5445057802e+01 +1.3063361299e+02 1.8543859118e+02 1.2500000000e+02 0.0000e+00 0.0000e+00
      -11  1    4    4    0    0 +5.4230210805e-03 +1.2463224425e-02 -5.3728483121e-03 1.4624286002e-02 5.1100000000e-04 0.0000e+00 -1.0000e+00
      255  1    4    4    0    0 -2.1018990988e+01 -3.5384783225e+01 +5.8625154754e+02 6.0084087566e+02 1.2500000000e+02 0.0000e+00 0.0000e+00
<mgrwt>
<rscale>  0 0.32309847E+03</rscale>
<asrwt>0</asrwt>
<pdfrwt beam="1">  1        2 0.11564742E+00 0.32309847E+03</pdfrwt>
<pdfrwt beam="2">  1       -2 0.53413021E-02 0.32309847E+03</pdfrwt>
<totfact> 0.68118180E+03</totfact>
</mgrwt>
</event>
<event>
 8      1 +1.6198320e-01 3.04573300e+02 7.81860800e-03 1.08297700e-01
        2 -1    0    0  501    0 +0.0000000000e+00 +0.0000000000e+00 +1.0170887962e+03 1.0170887962e+03 2.5500000000e-03 0.0000e+00 1.0000e+00
       -2 -1    0    0    0  501 -0.0000000000e+00 -0.0000000000e+00 -2.2801572694e+01 2.2801572837e+01 2.5500000000e-03 0.0000e+00 -1.0000e+00
  1000101  2    1    2    0    0 +7.1216025826e+01 +4.1837996604e+01 +5.8869834544e+02 6.0748489576e+02 1.2510002539e+02 4.0261e+01 0.0000e+00
 -1000101  2    1    2    0    0 -7.1216025826e+01 -4.1837996604e+01 +4.0558887810e+02 4.3240547332e+02 1.2510002008e+02 3.0065e+01 0.0000e+00
       11  1    3    3    0    0 -1.8418377852e-02 +6.6372446186e-02 +6.2055324525e-01 6.2436458065e-01 5.1100000000e-04 0.0000e+00 1.0000e+00
      255  1    3    3    0    0 +7.1234444203e+01 +4.1771624158e+01 +5.8807779220e+02 6.0686053118e+02 1.2500000000e+02 0.0000e+00 0.0000e+00
      -11  1    4    4    0    0 -8.9158819064e-02 -1.0943778381e-01 +2.2917309518e-01 2.6915886056e-01 5.1100000000e-04 0.0000e+00 -1.0000e+00
      255  1    4    4    0    0 -7.1126867006e+01 -4.1728558821e+01 +4.0535970501e+02 4.3213631446e+02 1.2500000000e+02 0.0000e+00 0.0000e+00
<mgrwt>
<rscale>  0 0.30457330E+03</rscale>
<asrwt>0</asrwt>
<pdfrwt beam="1">  1        2 0.15647516E+00 0.30457330E+03</pdfrwt>
<pdfrwt beam="2">  1       -2 0.35079352E-02 0.30457330E+03</pdfrwt>
<totfact> 0.85969711E+03</totfact>
</mgrwt>
</event>
<event>
 8      1 +1.6198320e-01 3.98742400e+02 7.81860800e-03 1.04421600e-01
       -3 -1    0    0    0  501 -0.0000000000e+00 +0.0000000000e+00 +7.5421216350e+02 7.5421217027e+02 1.0100000000e-01 0.0000e+00 -1.0000e+00
        3 -1    0    0  501    0 +0.0000000000e+00 -0.0000000000e+00 -5.2702464544e+01 5.2702561323e+01 1.0100000000e-01 0.0000e+00 1.0000e+00
  1000101  2    1    2    0    0 +2.9862320991e+01 -1.0831016217e+02 +5.6754076071e+02 5.9192511628e+02 1.2509987520e+02 1.6308e+02 0.0000e+00
 -1000101  2    1    2    0    0 -2.9862320991e+01 +1.0831016217e+02 +1.3396893825e+02 2.1498961531e+02 1.2509999533e+02 1.5854e+01 0.0000e+00
       11  1    3    3    0    0 +1.1657261180e-02 -2.0483323526e-01 +5.7650502024e-01 6.1192388864e-01 5.1100000000e-04 0.0000e+00 1.0000e+00
      255  1    3    3    0    0 +2.9850663730e+01 -1.0810532894e+02 +5.6696425569e+02 5.9131319239e+02 1.2500000000e+02 0.0000e+00 0.0000e+00
      -11  1    4    4    0    0 -7.9435082599e-02 +1.7771619766e-01 +2.3509540434e-01 3.0522629232e-01 5.1100000000e-04 0.0000e+00 -1.0000e+00
      255  1    4    4    0    0 -2.9782885909e+01 +1.0813244597e+02 +1.3373384285e+02 2.1468438902e+02 1.2500000000e+02 0.0000e+00 0.0000e+00
<mgrwt>
<rscale>  0 0.39874243E+03</rscale>
<asrwt>0</asrwt>
<pdfrwt beam="1">  1        3 0.81080789E-02 0.39874243E+03</pdfrwt>
<pdfrwt beam="2">  1       -3 0.11603266E+00 0.39874243E+03</pdfrwt>
<totfact> 0.17305399E+02</totfact>
</mgrwt>
</event>
<event>
 8      1 +1.6198320e-01 2.71647300e+02 7.81860800e-03 1.10034100e-01
       -2 -1    0    0    0  501 -0.0000000000e+00 +0.0000000000e+00 +1.0068722918e+02 1.0068722922e+02 2.5500000000e-03 0.0000e+00 -1.0000e+00
        2 -1    0    0  501    0 +0.0000000000e+00 -0.0000000000e+00 -1.8322143861e+02 1.8322143863e+02 2.5500000000e-03 0.0000e+00 1.0000e+00
  1000101  2    1    2    0    0 -2.8632242771e+01 +2.0852414697e+00 -8.7701096292e+01 1.5545300708e+02 1.2509996628e+02 4.7953e+00 0.0000e+00
 -1000101  2    1    2    0    0 +2.8632242771e+01 -2.0852414697e+00 +5.1668868616e+00 1.2845566077e+02 1.2509998603e+02 2.6405e+01 0.0000e+00
       11  1    3    3    0    0 -4.5585562305e-02 -9.5178878138e-02 -8.4695848477e-02 1.3531707285e-01 5.1100000000e-04 0.0000e+00 1.0000e+00
      255  1    3    3    0    0 -2.8586657209e+01 +2.1804203478e+00 -8.7616400444e+01 1.5531769001e+02 1.2500000000e+02 0.0000e+00 0.0000e+00
      -11  1    4    4    0    0 +5.7280108416e-02 +8.2779840095e-02 +4.5814393080e-02 1.1060168390e-01 5.1100000000e-04 0.0000e+00 -1.0000e+00
      255  1    4    4    0    0 +2.8574962663e+01 -2.1680213098e+00 +5.1210724685e+00 1.2834505908e+02 1.2500000000e+02 0.0000e+00 0.0000e+00
<mgrwt>
<rscale>  0 0.27164726E+03</rscale>
<asrwt>0</asrwt>
<pdfrwt beam="1">  1        2 0.28187914E-01 0.27164726E+03</pdfrwt>
<pdfrwt beam="2">  1       -2 0.15490343E-01 0.27164726E+03</pdfrwt>
<totfact> 0.60481317E+03</totfact>
</mgrwt>
</event>
<event>
 8      1 +1.6198320e-01 2.74727500e+02 7.81860800e-03 1.09860400e-01
        2 -1    0    0  501    0 +0.0000000000e+00 +0.0000000000e+00 +1.4431897355e+03 1.4431897355e+03 2.5500000000e-03 0.0000e+00 1.0000e+00
       -2 -1    0    0    0  501 -0.0000000000e+00 -0.0000000000e+00 -1.3074371400e+01 1.3074371649e+01 2.5500000000e-03 0.0000e+00 -1.0000e+00
  1000101  2    1    2    0    0 -3.0285464754e+01 +3.1612375089e+01 +9.0634291256e+02 9.1598255203e+02 1.2509999537e+02 1.8415e+02 0.0000e+00
 -1000101  2    1    2    0    0 +3.0285464754e+01 -3.1612375089e+01 +5.2377245159e+02 5.4028155517e+02 1.2510006467e+02 1.0430e+01 0.0000e+00
       11  1    3    3    0    0 -3.1352769896e-02 -7.6770050717e-02 +6.1536829610e-01 6.2093078345e-01 5.1100000000e-04 0.0000e+00 1.0000e+00
      255  1    3    3    0    0 -3.0254111985e+01 +3.1689145140e+01 +9.0572754426e+02 9.1536162125e+02 1.2500000000e+02 0.0000e+00 0.0000e+00
      -11  1    4    4    0    0 -6.2519618521e-02 -2.3805585175e-02 +1.2007156921e-01 1.3745126932e-01 5.1100000000e-04 0.0000e+00 -1.0000e+00
      255  1    4    4    0    0 +3.0347984373e+01 -3.1588569504e+01 +5.2365238002e+02 5.4014410390e+02 1.2500000000e+02 0.0000e+00 0.0000e+00
<mgrwt>
<rscale>  0 0.27472749E+03</rscale>
<asrwt>0</asrwt>
<pdfrwt beam="1">  1        2 0.22202913E+00 0.27472749E+03</pdfrwt>
<pdfrwt beam="2">  1       -2 0.20114423E-02 0.27472749E+03</pdfrwt>
<totfact> 0.11221566E+04</totfact>
</mgrwt>
</event>
<event>
 8      1 +1.6198320e-01 3.54639100e+02 7.81860800e-03 1.06072700e-01
        2 -1    0    0  501    0 +0.0000000000e+00 +0.0000000000e+00 +1.1401177523e+03 1.1401177523e+03 2.5500000000e-03 0.0000e+00 1.0000e+00
       -2 -1    0    0    0  501 -0.0000000000e+00 -0.0000000000e+00 -2.7578045923e+01 2.7578046041e+01 2.5500000000e-03 0.0000e+00 -1.0000e+00
  1000101  2    1    2    0    0 -2.9991228150e+00 -4.4995542312e+01 +9.4248592824e+02 9.5182106195e+02 1.2510002189e+02 5.1575e+00 0.0000e+00
 -1000101  2    1    2    0    0 +2.9991228150e+00 +4.4995542312e+01 +1.7005377815e+02 2.1587473640e+02 1.2510004312e+02 1.4040e+02 0.0000e+00
       11  1    3    3    0    0 +2.3229743648e-02 +5.6951062813e-02 +8.2419709532e-01 8.2648905474e-01 5.1100000000e-04 0.0000e+00 1.0000e+00
      255  1    3    3    0    0 -3.0223525587e+00 -4.5052493375e+01 +9.4166173114e+02 9.5099457289e+02 1.2500000000e+02 0.0000e+00 0.0000e+00
      -11  1    4    4    0    0 +7.1855500800e-02 -7.1292398230e-03 +2.3419453289e-02 7.5912917011e-02 5.1100000000e-04 0.0000e+00 -1.0000e+00
      255  1    4    4    0    0 +2.9272673142e+00 +4.5002671552e+01 +1.7003035869e+02 2.1579882349e+02 1.2500000000e+02 0.0000e+00 0.0000e+00
<mgrwt>
<rscale>  0 0.35463908E+03</rscale>
<asrwt>0</asrwt>
<pdfrwt beam="1">  1        2 0.17540276E+00 0.35463908E+03</pdfrwt>
<pdfrwt beam="2">  1       -2 0.42427756E-02 0.35463908E+03</pdfrwt>
<totfact> 0.54614760E+03</totfact>
</mgrwt>
</event>
<event>
 8      1 +1.6198320e-01 2.99879200e+02 7.81860800e-03 1.08530100e-01
       -2 -1    0    0    0  501 -0.0000000000e+00 +0.0000000000e+00 +1.4330186824e+01 1.4330187051e+01 2.5500000000e-03 0.0000e+00 -1.0000e+00
        2 -1    0    0  501    0 +0.0000000000e+00 -0.0000000000e+00 -1.5688481849e+03 1.5688481849e+03 2.5500000000e-03 0.0000e+00 1.0000e+00
  1000101  2    1    2    0    0 -6.4141613705e+01 -4.0889763984e+01 -6.0653878411e+02 6.2395956386e+02 1.2510044481e+02 1.7167e+02 0.0000e+00
 -1000101  2    1    2    0    0 +6.4141613705e+01 +4.0889763984e+01 -9.4797921392e+02 9.5921880805e+02 1.2510000912e+02 2.8422e+01 0.0000e+00
       11  1    3    3    0    0 -1.0358133697e-01 -8.6569995616e-02 -9.7113589009e-01 9.8047367922e-01 5.1100000000e-04 0.0000e+00 1.0000e+00
      255  1    3    3    0    0 -6.4038032369e+01 -4.0803193988e+01 -6.0556764822e+02 6.2297909018e+02 1.2500000000e+02 0.0000e+00 0.0000e+00
      -11  1    4    4    0    0 +1.5920510922e-01 +5.0107243011e-02 -9.1495691835e-01 9.3005560380e-01 5.1100000000e-04 0.0000e+00 -1.0000e+00
      255  1    4    4    0    0 +6.3982408596e+01 +4.0839656741e+01 -9.4706425701e+02 9.5828875245e+02 1.2500000000e+02 0.0000e+00 0.0000e+00
<mgrwt>
<rscale>  0 0.29987923E+03</rscale>
<asrwt>0</asrwt>
<pdfrwt beam="1">  1        2 0.24136112E+00 0.29987923E+03</pdfrwt>
<pdfrwt beam="2">  1       -2 0.22046454E-02 0.29987923E+03</pdfrwt>
<totfact> 0.84063496E+03</totfact>
</mgrwt>
</event>
<event>
 8      1 +1.6198320e-01 3.38977800e+02 7.81860800e-03 1.06723200e-01
        2 -1    0    0  501    0 +0.0000000000e+00 +0.0000000000e+00 +2.3567049029e+01 2.3567049167e+01 2.5500000000e-03 0.0000e+00 1.0000e+00
       -2 -1    0    0    0  501 -0.0000000000e+00 -0.0000000000e+00 -1.2189257711e+03 1.2189257711e+03 2.5500000000e-03 0.0000e+00 -1.0000e+00
  1000101  2    1    2    0    0 +9.0448471563e+01 -6.6296601048e+01 -5.1569265010e+02 5.4236986592e+02 1.2509994713e+02 1.2396e+02 0.0000e+00
 -1000101  2    1    2    0    0 -9.0448471563e+01 +6.6296601048e+01 -6.7966607193e+02 7.0012295431e+02 1.2510002598e+02 1.8141e+02 0.0000e+00
       11  1    3    3    0    0 +1.6770081908e-01 -5.6203308890e-02 -3.7899229826e-01 4.1823175383e-01 5.1100000000e-04 0.0000e+00 1.0000e+00
      255  1    3    3    0    0 +9.0280770744e+01 -6.6240397739e+01 -5.1531365780e+02 5.4195163416e+02 1.2500000000e+02 0.0000e+00 0.0000e+00
      -11  1    4    4    0    0 -1.6220868253e-01 +1.2367954197e-01 -1.0699089648e+00 1.0891803064e+00 5.1100000000e-04 0.0000e+00 -1.0000e+00
      255  1    4    4    0    0 -9.0286262880e+01 +6.6172921506e+01 -6.7859616297e+02 6.9903377401e+02 1.2500000000e+02 0.0000e+00 0.0000e+00
<mgrwt>
<rscale>  0 0.33897778E+03</rscale>
<asrwt>0</asrwt>
<pdfrwt beam="1">  1        2 0.36257008E-02 0.33897778E+03</pdfrwt>
<pdfrwt beam="2">  1       -2 0.18752699E+00 0.33897778E+03</pdfrwt>
<totfact> 0.42100267E+02</totfact>
</mgrwt>
</event>
<event>
 8      1 +1.6198320e-01 2.81867500e+02 7.81860800e-03 1.09467300e-01
        2 -1    0    0  501    0 +0.0000000000e+00 +0.0000000000e+00 +3.6483423894e+02 3.6483423895e+02 2.5500000000e-03 0.0000e+00 1.0000e+00
       -2 -1    0    0    0  501 -0.0000000000e+00 -0.0000000000e+00 -5.4442043527e+01 5.4442043587e+01 2.5500000000e-03 0.0000e+00 -1.0000e+00
  1000101  2    1    2    0    0 -6.1647448364e+01 +8.4286655324e+00 +1.8265925788e+02 2.2996929508e+02 1.2510004755e+02 2.2396e+02 0.0000e+00
 -1000101  2    1    2    0    0 +6.1647448364e+01 -8.4286655324e+00 +1.2773293754e+02 1.8930698746e+02 1.2509988760e+02 1.3601e+02 0.0000e+00
       11  1    3    3    0    0 -8.7393709326e-02 -3.4525856979e-02 +3.0296368094e-01 3.1720174703e-01 5.1100000000e-04 0.0000e+00 1.0000e+00
      255  1    3    3    0    0 -6.1560054654e+01 +8.4631913894e+00 +1.8235629420e+02 2.2965209333e+02 1.2500000000e+02 0.0000e+00 0.0000e+00
      -11  1    4    4    0    0 +6.6785777927e-02 +5.5739098988e-02 +2.6406652993e-03 8.7031152606e-02 5.1100000000e-04 0.0000e+00 -1.0000e+00
      255  1    4    4    0    0 +6.1580662586e+01 -8.4844046314e+00 +1.2773029687e+02 1.8921995631e+02 1.2500000000e+02 0.0000e+00 0.0000e+00
<mgrwt>
<rscale>  0 0.28186750E+03</rscale>
<asrwt>0</asrwt>
<pdfrwt beam="1">  1        2 0.56128346E-01 0.28186750E+03</pdfrwt>
<pdfrwt beam="2">  1       -2 0.83756989E-02 0.28186750E+03</pdfrwt>
<totfact> 0.77245353E+03</totfact>
</mgrwt>
</event>
<event>
 8      1 +1.6198320e-01 3.05081000e+02 7.81860800e-03 1.08272800e-01
        2 -1    0    0  501    0 +0.0000000000e+00 +0.0000000000e+00 +2.3332515064e+02 2.3332515065e+02 2.5500000000e-03 0.0000e+00 1.0000e+00
       -2 -1    0    0    0  501 -0.0000000000e+00 -0.0000000000e+00 -9.9726073009e+01 9.9726073042e+01 2.5500000000e-03 0.0000e+00 -1.0000e+00
  1000101  2    1    2    0    0 +2.9362854355e+01 -5.6647193063e+00 -2.2720864858e+01 1.3061586854e+02 1.2509996465e+02 4.3372e+01 0.0000e+00
 -1000101  2    1    2    0    0 -2.9362854355e+01 +5.6647193063e+00 +1.5631994249e+02 2.0243535515e+02 1.2509948975e+02 1.1716e+02 0.0000e+00
       11  1    3    3    0    0 +4.4112879579e-02 +3.7106225268e-02 +7.1217105039e-02 9.1623988505e-02 5.1100000000e-04 0.0000e+00 1.0000e+00
      255  1    3    3    0    0 +2.9318741475e+01 -5.7018255315e+00 -2.2792081963e+01 1.3052424455e+02 1.2500000000e+02 0.0000e+00 0.0000e+00
      -11  1    4    4    0    0 -8.8088131310e-02 -5.6672770231e-02 +6.6806640927e-02 1.2423650895e-01 5.1100000000e-04 0.0000e+00 -1.0000e+00
      255  1    4    4    0    0 -2.9274766223e+01 +5.7213920765e+00 +1.5625313585e+02 2.0231111864e+02 1.2500000000e+02 0.0000e+00 0.0000e+00
<mgrwt>
<rscale>  0 0.30508098E+03</rscale>
<asrwt>0</asrwt>
<pdfrwt beam="1">  1        2 0.35896177E-01 0.30508098E+03</pdfrwt>
<pdfrwt beam="2">  1       -2 0.15342473E-01 0.30508098E+03</pdfrwt>
<totfact> 0.47338898E+03</totfact>
</mgrwt>
</event>
<event>
 8      1 +1.6198320e-01 3.44016000e+02 7.81860800e-03 1.06509800e-01
       -2 -1    0    0    0  501 -0.0000000000e+00 +0.0000000000e+00 +4.8909470263e+01 4.8909470329e+01 2.5500000000e-03 0.0000e+00 -1.0000e+00
        2 -1    0    0  501    0 +0.0000000000e+00 -0.0000000000e+00 -6.0492879963e+02 6.0492879963e+02 2.5500000000e-03 0.0000e+00 1.0000e+00
  1000101  2    1    2    0    0 +2.2509836263e+01 -8.1799002927e+01 -1.2198708264e+02 1.9423864477e+02 1.2510009265e+02 3.4625e+01 0.0000e+00
 -1000101  2    1    2    0    0 -2.2509836263e+01 +8.1799002927e+01 -4.3403224672e+02 4.5959962519e+02 1.2510017855e+02 5.3098e+01 0.0000e+00
       11  1    3    3    0    0 +9.9271555870e-02 -1.3423583811e-01 -1.8009761910e-01 2.4557995758e-01 5.1100000000e-04 0.0000e+00 1.0000e+00
      255  1    3    3    0    0 +2.2410564707e+01 -8.1664767089e+01 -1.2180698502e+02 1.9399306481e+02 1.2500000000e+02 0.0000e+00 0.0000e+00
      -11  1    4    4    0    0 +3.6901364532e-02 -3.7558920420e-02 -2.3064683726e-01 2.3658108095e-01 5.1100000000e-04 0.0000e+00 -1.0000e+00
      255  1    4    4    0    0 -2.2546737627e+01 +8.1836561848e+01 -4.3380159989e+02 4.5936304411e+02 1.2500000000e+02 0.0000e+00 0.0000e+00
<mgrwt>
<rscale>  0 0.34401597E+03</rscale>
<asrwt>0</asrwt>
<pdfrwt beam="1">  1        2 0.93065964E-01 0.34401597E+03</pdfrwt>
<pdfrwt beam="2">  1       -2 0.75245343E-02 0.34401597E+03</pdfrwt>
<totfact> 0.52209900E+03</totfact>
</mgrwt>
</event>
<event>
 8      1 +1.6198320e-01 2.62336100e+02 7.81860800e-03 1.10574800e-01
        2 -1    0    0  501    0 +0.0000000000e+00 +0.0000000000e+00 +7.9822098660e+02 7.9822098661e+02 2.5500000000e-03 0.0000e+00 1.0000e+00
       -2 -1    0    0    0  501 -0.0000000000e+00 -0.0000000000e+00 -2.1554248050e+01 2.1554248200e+01 2.5500000000e-03 0.0000e+00 -1.0000e+00
  1000101  2    1    2    0    0 -3.7158638298e-01 -1.6523965716e+01 +2.7645133842e+02 3.0388900516e+02 1.2509998171e+02 3.8689e+01 0.0000e+00
 -1000101  2    1    2    0    0 +3.7158638298e-01 +1.6523965716e+01 +5.0021540013e+02 5.1588622965e+02 1.2509986367e+02 2.8477e+01 0.0000e+00
       11  1    3    3    0    0 -1.8748696682e-02 +7.8022163552e-02 +2.8705520352e-01 2.9806026677e-01 5.1100000000e-04 0.0000e+00 1.0000e+00
      255  1    3    3    0    0 -3.5283768630e-01 -1.6601987879e+01 +2.7616428322e+02 3.0359094489e+02 1.2500000000e+02 0.0000e+00 0.0000e+00
      -11  1    4    4    0    0 +3.5204166208e-02 -8.0283459720e-02 +4.0224216350e-01 4.1168408573e-01 5.1100000000e-04 0.0000e+00 -1.0000e+00
      255  1    4    4    0    0 +3.3638221677e-01 +1.6604249176e+01 +4.9981315797e+02 5.1547454556e+02 1.2500000000e+02 0.0000e+00 0.0000e+00
<mgrwt>
<rscale>  0 0.26233607E+03</rscale>
<asrwt>0</asrwt>
<pdfrwt beam="1">  1        2 0.12280323E+00 0.26233607E+03</pdfrwt>
<pdfrwt beam="2">  1       -2 0.33160380E-02 0.26233607E+03</pdfrwt>
<totfact> 0.12892267E+04</totfact>
</mgrwt>
</event>
<event>
 8      1 +1.6198320e-01 5.45042600e+02 7.81860800e-03 1.00264800e-01
        2 -1    0    0  501    0 +0.0000000000e+00 +0.0000000000e+00 +6.1428200160e+02 6.1428200161e+02 2.5500000000e-03 0.0000e+00 1.0000e+00
       -2 -1    0    0    0  501 -0.0000000000e+00 -0.0000000000e+00 -1.2090191029e+02 1.2090191032e+02 2.5500000000e-03 0.0000e+00 -1.0000e+00
  1000101  2    1    2    0    0 -1.8334472033e+02 -1.5684592166e+02 +2.7373239590e+02 3.8573999512e+02 1.2509991868e+02 5.2956e+00 0.0000e+00
 -1000101  2    1    2    0    0 +1.8334472033e+02 +1.5684592166e+02 +2.1964769541e+02 3.4944391681e+02 1.2510000512e+02 1.3556e+02 0.0000e+00
       11  1    3    3    0    0 -2.8013080809e-01 -2.0381688210e-01 +4.4809048600e-01 5.6639203370e-01 5.1100000000e-04 0.0000e+00 1.0000e+00
      255  1    3    3    0    0 -1.8306458952e+02 -1.5664210478e+02 +2.7328430541e+02 3.8517360308e+02 1.2500000000e+02 0.0000e+00 0.0000e+00
      -11  1    4    4    0    0 +3.2257584844e-01 +2.3393868416e-01 +3.0793961529e-01 5.0359661806e-01 5.1100000000e-04 0.0000e+00 -1.0000e+00
      255  1    4    4    0    0 +1.8302214448e+02 +1.5661198298e+02 +2.1933975579e+02 3.4894032019e+02 1.2500000000e+02 0.0000e+00 0.0000e+00
<mgrwt>
<rscale>  0 0.54504263E+03</rscale>
<asrwt>0</asrwt>
<pdfrwt beam="1">  1        2 0.94504923E-01 0.54504263E+03</pdfrwt>
<pdfrwt beam="2">  1       -2 0.18600294E-01 0.54504263E+03</pdfrwt>
<totfact> 0.11704541E+03</totfact>
</mgrwt>
</event>
<event>
 8      1 +1.6198320e-01 3.10491200e+02 7.81860800e-03 1.08011100e-01
        1 -1    0    0  501    0 +0.0000000000e+00 +0.0000000000e+00 +1.8560691571e+03 1.8560691571e+03 5.0400000000e-03 0.0000e+00 1.0000e+00
       -1 -1    0    0    0  501 -0.0000000000e+00 -0.0000000000e+00 -1.2985076962e+01 1.2985077941e+01 5.0400000000e-03 0.0000e+00 -1.0000e+00
  1000101  2    1    2    0    0 -4.0238855475e+01 -6.4130581594e+01 +1.2354481992e+03 1.2440716109e+03 1.2510005257e+02 1.9756e+02 0.0000e+00
 -1000101  2    1    2    0    0 +4.0238855475e+01 +6.4130581594e+01 +6.0763588093e+02 6.2498262415e+02 1.2510003877e+02 8.2151e+01 0.0000e+00
       11  1    3    3    0    0 +2.4759411364e-02 -4.3536521509e-02 +1.5417827555e+00 1.5425961180e+00 5.1100000000e-04 0.0000e+00 1.0000e+00
      255  1    3    3    0    0 -4.0263614886e+01 -6.4087045073e+01 +1.2339064165e+03 1.2425290148e+03 1.2500000000e+02 0.0000e+00 0.0000e+00
      -11  1    4    4    0    0 -2.6951630365e-02 +8.3240783520e-02 +1.5978673018e-01 1.8217430851e-01 5.1100000000e-04 0.0000e+00 -1.0000e+00
      255  1    4    4    0    0 +4.0265807105e+01 +6.4047340811e+01 +6.0747609420e+02 6.2480044984e+02 1.2500000000e+02 0.0000e+00 0.0000e+00
<mgrwt>
<rscale>  0 0.31049124E+03</rscale>
<asrwt>0</asrwt>
<pdfrwt beam="1">  1        1 0.28554918E+00 0.31049124E+03</pdfrwt>
<pdfrwt beam="2">  1       -1 0.19977036E-02 0.31049124E+03</pdfrwt>
<totfact> 0.28716738E+03</totfact>
</mgrwt>
</event>
<event>
 8      1 +1.6198320e-01 2.62650800e+02 7.81860800e-03 1.10556100e-01
       -2 -1    0    0    0  501 -0.0000000000e+00 +0.0000000000e+00 +5.0740399786e+00 5.0740406194e+00 2.5500000000e-03 0.0000e+00 -1.0000e+00
        2 -1    0    0  501    0 +0.0000000000e+00 -0.0000000000e+00 -3.3989396058e+03 3.3989396058e+03 2.5500000000e-03 0.0000e+00 1.0000e+00
  1000101  2    1    2    0    0 -1.6745194274e+01 +7.4028523015e+00 -1.2366850667e+03 1.2431311977e+03 1.2510002722e+02 6.9962e+01 0.0000e+00
 -1000101  2    1    2    0    0 +1.6745194274e+01 -7.4028523015e+00 -2.1571804991e+03 2.1608824487e+03 1.2510014998e+02 1.3895e+01 0.0000e+00
       11  1    3    3    0    0 +7.7849279664e-02 +1.2124078902e-02 -1.2877533333e+00 1.2901613900e+00 5.1100000000e-04 0.0000e+00 1.0000e+00
      255  1    3    3    0    0 -1.6823043554e+01 +7.3907282226e+00 -1.2353973134e+03 1.2418410363e+03 1.2500000000e+02 0.0000e+00 0.0000e+00
      -11  1    4    4    0    0 -2.1439705326e-04 +9.3545154141e-02 -1.6073046439e+00 1.6100246027e+00 5.1100000000e-04 0.0000e+00 -1.0000e+00
      255  1    4    4    0    0 +1.6745408671e+01 -7.4963974556e+00 -2.1555731945e+03 2.1592724241e+03 1.2500000000e+02 0.0000e+00 0.0000e+00
<mgrwt>
<rscale>  0 0.26265077E+03</rscale>
<asrwt>0</asrwt>
<pdfrwt beam="1">  1        2 0.52291197E+00 0.26265077E+03</pdfrwt>
<pdfrwt beam="2">  1       -2 0.78062430E-03 0.26265077E+03</pdfrwt>
<totfact> 0.36114567E+03</totfact>
</mgrwt>
</event>
<event>
 8      1 +1.6198320e-01 4.14075000e+02 7.81860800e-03 1.03901200e-01
        2 -1    0    0  501    0 +0.0000000000e+00 +0.0000000000e+00 +1.5748175583e+02 1.5748175585e+02 2.5500000000e-03 0.0000e+00 -1.0000e+00
       -2 -1    0    0    0  501 -0.0000000000e+00 -0.0000000000e+00 -2.7218729881e+02 2.7218729882e+02 2.5500000000e-03 0.0000e+00 1.0000e+00
  1000101  2    1    2    0    0 +7.3301044113e+01 +3.4911989964e+01 +9.1661284868e+01 1.7505336889e+02 1.2509996285e+02 1.3595e+02 0.0000e+00
 -1000101  2    1    2    0    0 -7.3301044113e+01 -3.4911989964e+01 -2.0636682785e+02 2.5461568578e+02 1.2509991887e+02 6.4026e+01 0.0000e+00
       11  1    3    3    0    0 +3.0489961186e-02 +2.7626275518e-02 -4.9033463172e-02 6.4010862079e-02 5.1100000000e-04 0.0000e+00 1.0000e+00
      255  1    3    3    0    0 +7.3270554151e+01 +3.4884363689e+01 +9.1710318331e+01 1.7498935803e+02 1.2500000000e+02 0.0000e+00 0.0000e+00
      -11  1    4    4    0    0 -1.2553238540e-01 +2.8376451727e-02 -2.8102342770e-01 3.0909226913e-01 5.1100000000e-04 0.0000e+00 -1.0000e+00
      255  1    4    4    0    0 -7.3175511727e+01 -3.4940366416e+01 -2.0608580442e+02 2.5430659351e+02 1.2500000000e+02 0.0000e+00 0.0000e+00
<mgrwt>
<rscale>  0 0.41407504E+03</rscale>
<asrwt>0</asrwt>
<pdfrwt beam="1">  1        2 0.24227962E-01 0.41407504E+03</pdfrwt>
<pdfrwt beam="2">  1       -2 0.41874969E-01 0.41407504E+03</pdfrwt>
<totfact> 0.12243593E+03</totfact>
</mgrwt>
</event>
<event>
 8      1 +1.6198320e-01 3.52691500e+02 7.81860800e-03 1.06151600e-01
        2 -1    0    0  501    0 +0.0000000000e+00 +0.0000000000e+00 +3.9053599011e+02 3.9053599012e+02 2.5500000000e-03 0.0000e+00 1.0000e+00
       -2 -1    0    0    0  501 -0.0000000000e+00 -0.0000000000e+00 -7.9628576789e+01 7.9628576830e+01 2.5500000000e-03 0.0000e+00 -1.0000e+00
  1000101  2    1    2    0    0 +1.0421990171e+02 -5.5491863169e+01 +1.0370860057e+02 2.0086459315e+02 1.2509986475e+02 2.6492e+02 0.0000e+00
 -1000101  2    1    2    0    0 -1.0421990171e+02 +5.5491863169e+01 +2.0719881276e+02 2.6929997380e+02 1.2509993242e+02 5.4895e+01 0.0000e+00
       11  1    3    3    0    0 +1.1027924338e-01 -8.1887186098e-04 +1.8429007798e-01 2.1476795859e-01 5.1100000000e-04 0.0000e+00 1.0000e+00
      255  1    3    3    0    0 +1.0410962247e+02 -5.5491044297e+01 +1.0352431049e+02 2.0064982519e+02 1.2500000000e+02 0.0000e+00 0.0000e+00
      -11  1    4    4    0    0 +3.8792701249e-02 -4.3635982813e-04 +1.2165457274e-02 4.0661081545e-02 5.1100000000e-04 0.0000e+00 -1.0000e+00
      255  1    4    4    0    0 -1.0425869441e+02 +5.5492299529e+01 +2.0718664730e+02 2.6925931272e+02 1.2500000000e+02 0.0000e+00 0.0000e+00
<mgrwt>
<rscale>  0 0.35269151E+03</rscale>
<asrwt>0</asrwt>
<pdfrwt beam="1">  1        2 0.60082460E-01 0.35269151E+03</pdfrwt>
<pdfrwt beam="2">  1       -2 0.12250550E-01 0.35269151E+03</pdfrwt>
<totfact> 0.39323586E+03</totfact>
</mgrwt>
</event>
<event>
 8      1 +1.6198320e-01 2.83913700e+02 7.81860800e-03 1.09357000e-01
       -2 -1    0    0    0  501 -0.0000000000e+00 +0.0000000000e+00 +9.9642093100e+00 9.9642096362e+00 2.5500000000e-03 0.0000e+00 -1.0000e+00
        2 -1    0    0  501    0 +0.0000000000e+00 -0.0000000000e+00 -2.0224127600e+03 2.0224127600e+03 2.5500000000e-03 0.0000e+00 1.0000e+00
  1000101  2    1    2    0    0 -5.5708651291e+01 +3.7332302644e+01 -9.9094956447e+02 1.0010635695e+03 1.2510026446e+02 4.4323e+02 0.0000e+00
 -1000101  2    1    2    0    0 +5.5708651291e+01 -3.7332302644e+01 -1.0214989862e+03 1.0313134001e+03 1.2509994343e+02 3.1713e+01 0.0000e+00
       11  1    3    3    0    0 +6.1785557283e-02 -2.3814727494e-03 -5.4361616031e-01 5.4712148319e-01 5.1100000000e-04 0.0000e+00 1.0000e+00
      255  1    3    3    0    0 -5.5770436848e+01 +3.7334684117e+01 -9.9040594831e+02 1.0005164480e+03 1.2500000000e+02 0.0000e+00 0.0000e+00
      -11  1    4    4    0    0 +2.7687912414e-02 -2.8225589954e-02 -4.8049124541e-02 6.2227678024e-02 5.1100000000e-04 0.0000e+00 -1.0000e+00
      255  1    4    4    0    0 +5.5680963379e+01 -3.7304077054e+01 -1.0214509371e+03 1.0312511724e+03 1.2500000000e+02 0.0000e+00 0.0000e+00
<mgrwt>
<rscale>  0 0.28391368E+03</rscale>
<asrwt>0</asrwt>
<pdfrwt beam="1">  1        2 0.31114010E+00 0.28391368E+03</pdfrwt>
<pdfrwt beam="2">  1       -2 0.15329569E-02 0.28391368E+03</pdfrwt>
<totfact> 0.82654621E+03</totfact>
</mgrwt>
</event>
<event>
 8      1 +1.6198320e-01 2.74558900e+02 7.81860800e-03 1.09869800e-01
       -2 -1    0    0    0  501 -0.0000000000e+00 +0.0000000000e+00 +1.5115170063e+01 1.5115170278e+01 2.5500000000e-03 0.0000e+00 -1.0000e+00
        2 -1    0    0  501    0 +0.0000000000e+00 -0.0000000000e+00 -1.2468033249e+03 1.2468033249e+03 2.5500000000e-03 0.0000e+00 1.0000e+00
  1000101  2    1    2    0    0 -1.7271455700e+01 -3.6271378444e+01 -7.9863769766e+02 8.0937389911e+02 1.2510004141e+02 2.1390e+02 0.0000e+00
 -1000101  2    1    2    0    0 +1.7271455700e+01 +3.6271378444e+01 -4.3305045717e+02 4.5254459606e+02 1.2509994762e+02 1.2880e+02 0.0000e+00
       11  1    3    3    0    0 -8.7867787236e-02 -7.2084518972e-02 -4.2547435344e-01 4.4039256631e-01 5.1100000000e-04 0.0000e+00 1.0000e+00
      255  1    3    3    0    0 -1.7183587913e+01 -3.6199293925e+01 -7.9821222330e+02 8.0893350654e+02 1.2500000000e+02 0.0000e+00 0.0000e+00
      -11  1    4    4    0    0 +1.0470020327e-01 +7.5391005341e-02 -3.8185489834e-01 4.0306247749e-01 5.1100000000e-04 0.0000e+00 -1.0000e+00
      255  1    4    4    0    0 +1.7166755497e+01 +3.6195987439e+01 -4.3266860227e+02 4.5214153358e+02 1.2500000000e+02 0.0000e+00 0.0000e+00
<mgrwt>
<rscale>  0 0.27455888E+03</rscale>
<asrwt>0</asrwt>
<pdfrwt beam="1">  1        2 0.19181582E+00 0.27455888E+03</pdfrwt>
<pdfrwt beam="2">  1       -2 0.23254118E-02 0.27455888E+03</pdfrwt>
<totfact> 0.11614907E+04</totfact>
</mgrwt>
</event>
<event>
 8      1 +1.6198320e-01 3.37493500e+02 7.81860800e-03 1.06786900e-01
       -2 -1    0    0    0  501 -0.0000000000e+00 +0.0000000000e+00 +1.9400506633e+01 1.9400506801e+01 2.5500000000e-03 0.0000e+00 -1.0000e+00
        2 -1    0    0  501    0 +0.0000000000e+00 -0.0000000000e+00 -1.4677694726e+03 1.4677694726e+03 2.5500000000e-03 0.0000e+00 1.0000e+00
  1000101  2    1    2    0    0 -2.4199052687e+01 +6.0899213093e+01 -1.1311881956e+03 1.1399697572e+03 1.2509998094e+02 1.1657e+02 0.0000e+00
 -1000101  2    1    2    0    0 +2.4199052687e+01 -6.0899213093e+01 -3.1718077040e+02 3.4720022221e+02 1.2510013941e+02 1.1025e+02 0.0000e+00
       11  1    3    3    0    0 -5.2416235674e-02 +1.2509518425e-01 -6.6911097230e-01 6.8271957732e-01 5.1100000000e-04 0.0000e+00 1.0000e+00
      255  1    3    3    0    0 -2.4146636451e+01 +6.0774117909e+01 -1.1305190846e+03 1.1392870377e+03 1.2500000000e+02 0.0000e+00 0.0000e+00
      -11  1    4    4    0    0 +1.0939691193e-01 -5.9467626857e-02 -4.1417036077e-01 4.3248286885e-01 5.1100000000e-04 0.0000e+00 -1.0000e+00
      255  1    4    4    0    0 +2.4089655775e+01 -6.0839745466e+01 -3.1676660004e+02 3.4676773934e+02 1.2500000000e+02 0.0000e+00 0.0000e+00
<mgrwt>
<rscale>  0 0.33749353E+03</rscale>
<asrwt>0</asrwt>
<pdfrwt beam="1">  1        2 0.22581060E+00 0.33749353E+03</pdfrwt>
<pdfrwt beam="2">  1       -2 0.29846945E-02 0.33749353E+03</pdfrwt>
<totfact> 0.60778785E+03</totfact>
</mgrwt>
</event>
<event>
 8      1 +1.6198320e-01 8.28076500e+02 7.81860800e-03 9.52024400e-02
       -2 -1    0    0    0  501 -0.0000000000e+00 +0.0000000000e+00 +2.2588341387e+02 2.2588341388e+02 2.5500000000e-03 0.0000e+00 -1.0000e+00
        2 -1    0    0  501    0 +0.0000000000e+00 -0.0000000000e+00 -7.5892105286e+02 7.5892105286e+02 2.5500000000e-03 0.0000e+00 1.0000e+00
  1000101  2    1    2    0    0 -6.8895943797e+01 +1.9826606463e+02 +1.3099140539e+02 2.7724481859e+02 1.2509939126e+02 3.3535e+01 0.0000e+00
 -1000101  2    1    2    0    0 +6.8895943797e+01 -1.9826606463e+02 -6.6402904437e+02 7.0755964816e+02 1.2509996195e+02 4.9706e+01 0.0000e+00
       11  1    3    3    0    0 +6.3759089775e-03 +1.2739915215e-02 +9.7279219861e-02 9.8318184449e-02 5.1100000000e-04 0.0000e+00 1.0000e+00
      255  1    3    3    0    0 -6.8902319706e+01 +1.9825332471e+02 +1.3089412617e+02 2.7714650040e+02 1.2500000000e+02 0.0000e+00 0.0000e+00
      -11  1    4    4    0    0 +2.7763964097e-02 +2.3824481347e-02 -1.5203623608e-01 1.5637685831e-01 5.1100000000e-04 0.0000e+00 -1.0000e+00
      255  1    4    4    0    0 +6.8868179833e+01 -1.9828988911e+02 -6.6387700814e+02 7.0740327130e+02 1.2500000000e+02 0.0000e+00 0.0000e+00
<mgrwt>
<rscale>  0 0.82807651E+03</rscale>
<asrwt>0</asrwt>
<pdfrwt beam="1">  1        2 0.11675708E+00 0.82807651E+03</pdfrwt>
<pdfrwt beam="2">  1       -2 0.34751295E-01 0.82807651E+03</pdfrwt>
<totfact> 0.28799370E+02</totfact>
</mgrwt>
</event>
<event>
 8      1 +1.6198320e-01 4.32830800e+02 7.81860800e-03 1.03296900e-01
        2 -1    0    0  501    0 +0.0000000000e+00 +0.0000000000e+00 +8.7288551165e+01 8.7288551203e+01 2.5500000000e-03 0.0000e+00 -1.0000e+00
       -2 -1    0    0    0  501 -0.0000000000e+00 -0.0000000000e+00 -5.3656089279e+02 5.3656089280e+02 2.5500000000e-03 0.0000e+00 1.0000e+00
  1000101  2    1    2    0    0 +4.5988817393e+01 +5.8785737208e+01 +6.0427017287e+00 1.4579866767e+02 1.2509997212e+02 2.3211e+02 0.0000e+00
 -1000101  2    1    2    0    0 -4.5988817393e+01 -5.8785737208e+01 -4.5531504336e+02 4.7805077633e+02 1.2510004725e+02 1.0210e+02 0.0000e+00
       11  1    3    3    0    0 -1.7957511339e-03 +1.3989192362e-01 -1.6656515804e-02 1.4089242583e-01 5.1100000000e-04 0.0000e+00 1.0000e+00
      255  1    3    3    0    0 +4.5990613144e+01 +5.8645845284e+01 +6.0593582446e+00 1.4565777524e+02 1.2500000000e+02 0.0000e+00 0.0000e+00
      -11  1    4    4    0    0 -1.1087594754e-01 -1.3680073856e-01 -5.5158295382e-01 5.7900944196e-01 5.1100000000e-04 0.0000e+00 -1.0000e+00
      255  1    4    4    0    0 -4.5877941446e+01 -5.8648936469e+01 -4.5476346040e+02 4.7747176689e+02 1.2500000000e+02 0.0000e+00 0.0000e+00
<mgrwt>
<rscale>  0 0.43283079E+03</rscale>
<asrwt>0</asrwt>
<pdfrwt beam="1">  1        2 0.13429008E-01 0.43283079E+03</pdfrwt>
<pdfrwt beam="2">  1       -2 0.82547828E-01 0.43283079E+03</pdfrwt>
<totfact> 0.59521116E+02</totfact>
</mgrwt>
</event>
<event>
 8      1 +1.6198320e-01 3.31905500e+02 7.81860800e-03 1.07029700e-01
       -1 -1    0    0    0  501 -0.0000000000e+00 +0.0000000000e+00 +2.4751282618e+01 2.4751283131e+01 5.0400000000e-03 0.0000e+00 1.0000e+00
        1 -1    0    0  501    0 +0.0000000000e+00 -0.0000000000e+00 -1.1126823560e+03 1.1126823560e+03 5.0400000000e-03 0.0000e+00 -1.0000e+00
  1000101  2    1    2    0    0 -3.8322827050e+01 -1.0137740992e+02 -5.0280277186e+02 5.2934553259e+02 1.2510014857e+02 1.8236e+00 0.0000e+00
 -1000101  2    1    2    0    0 +3.8322827050e+01 +1.0137740992e+02 -5.8512830155e+02 6.0808810658e+02 1.2509995113e+02 1.3044e+02 0.0000e+00
       11  1    3    3    0    0 -7.5794861319e-02 -6.4049910762e-03 -1.0188197594e-01 1.2714591247e-01 5.1100000000e-04 0.0000e+00 1.0000e+00
      255  1    3    3    0    0 -3.8247032189e+01 -1.0137100492e+02 -5.0270088988e+02 5.2921838668e+02 1.2500000000e+02 0.0000e+00 0.0000e+00
      -11  1    4    4    0    0 +2.3468458816e-02 +2.0446790493e-01 -6.8346831923e-01 7.1378364875e-01 5.1100000000e-04 0.0000e+00 -1.0000e+00
      255  1    4    4    0    0 +3.8299358591e+01 +1.0117294201e+02 -5.8444483323e+02 6.0737432293e+02 1.2500000000e+02 0.0000e+00 0.0000e+00
<mgrwt>
<rscale>  0 0.33190550E+03</rscale>
<asrwt>0</asrwt>
<pdfrwt beam="1">  1        1 0.17118186E+00 0.33190550E+03</pdfrwt>
<pdfrwt beam="2">  1       -1 0.38078905E-02 0.33190550E+03</pdfrwt>
<totfact> 0.35048979E+03</totfact>
</mgrwt>
</event>
<event>
 8      1 +1.6198320e-01 2.81510400e+02 7.81860800e-03 1.09486700e-01
       -1 -1    0    0    0  501 -0.0000000000e+00 +0.0000000000e+00 +2.7871278816e+02 2.7871278821e+02 5.0400000000e-03 0.0000e+00 1.0000e+00
        1 -1    0    0  501    0 +0.0000000000e+00 -0.0000000000e+00 -7.1084035508e+01 7.1084035687e+01 5.0400000000e-03 0.0000e+00 -1.0000e+00
  1000101  2    1    2    0    0 -8.0804638738e+00 -5.6122689761e+01 +1.4205236063e+02 1.9759542044e+02 1.2510006722e+02 2.6361e+01 0.0000e+00
 -1000101  2    1    2    0    0 +8.0804638738e+00 +5.6122689761e+01 +6.5576392025e+01 1.5220140345e+02 1.2509977546e+02 5.5819e+02 0.0000e+00
       11  1    3    3    0    0 -5.4259460536e-03 -1.1334702742e-01 +2.5476956929e-01 2.7889923642e-01 5.1100000000e-04 0.0000e+00 1.0000e+00
      255  1    3    3    0    0 -8.0750379277e+00 -5.6009342734e+01 +1.4179759106e+02 1.9731652121e+02 1.2500000000e+02 0.0000e+00 0.0000e+00
      -11  1    4    4    0    0 -3.6212931935e-02 +1.1235237650e-01 -7.4348208674e-03 1.1827920624e-01 5.1100000000e-04 0.0000e+00 -1.0000e+00
      255  1    4    4    0    0 +8.1166768057e+00 +5.6010337385e+01 +6.5583826846e+01 1.5208312424e+02 1.2500000000e+02 0.0000e+00 0.0000e+00
<mgrwt>
<rscale>  0 0.28151042E+03</rscale>
<asrwt>0</asrwt>
<pdfrwt beam="1">  1        1 0.10936005E-01 0.28151042E+03</pdfrwt>
<pdfrwt beam="2">  1       -1 0.42878891E-01 0.28151042E+03</pdfrwt>
<totfact> 0.30871071E+03</totfact>
</mgrwt>
</event>
<event>
 8      1 +1.6198320e-01 2.60808000e+02 7.81860800e-03 1.10665900e-01
       -2 -1    0    0    0  501 -0.0000000000e+00 +0.0000000000e+00 +1.0668985493e+02 1.0668985496e+02 2.5500000000e-03 0.0000e+00 -1.0000e+00
        2 -1    0    0  501    0 +0.0000000000e+00 -0.0000000000e+00 -1.5938915037e+02 1.5938915039e+02 2.5500000000e-03 0.0000e+00 1.0000e+00
  1000101  2    1    2    0    0 +5.5444774008e+00 +1.5642007704e+01 +7.1754245429e+00 1.2639962343e+02 1.2509981795e+02 9.6949e+01 0.0000e+00
 -1000101  2    1    2    0    0 -5.5444774008e+00 -1.5642007704e+01 -5.9874719981e+01 1.3967938192e+02 1.2509969627e+02 1.0687e+01 0.0000e+00
       11  1    3    3    0    0 -1.5771033055e-02 +1.1007101619e-01 -5.8451241368e-03 1.1134981224e-01 5.1100000000e-04 0.0000e+00 1.0000e+00
      255  1    3    3    0    0 +5.5602484339e+00 +1.5531936688e+01 +7.1812696671e+00 1.2628827362e+02 1.2500000000e+02 0.0000e+00 0.0000e+00
      -11  1    4    4    0    0 -4.0372236852e-02 -1.0184092608e-01 -2.2205907457e-02 1.1178038818e-01 5.1100000000e-04 0.0000e+00 -1.0000e+00
      255  1    4    4    0    0 -5.5041051640e+00 -1.5540166778e+01 -5.9852514073e+01 1.3956760153e+02 1.2500000000e+02 0.0000e+00 0.0000e+00
<mgrwt>
<rscale>  0 0.26080802E+03</rscale>
<asrwt>0</asrwt>
<pdfrwt beam="1">  1        2 0.24521408E-01 0.26080802E+03</pdfrwt>
<pdfrwt beam="2">  1       -2 0.16413824E-01 0.26080802E+03</pdfrwt>
<totfact> 0.64027022E+03</totfact>
</mgrwt>
</event>
<event>
 8      1 +1.6198320e-01 2.97349600e+02 7.81860800e-03 1.08657300e-01
        1 -1    0    0  501    0 +0.0000000000e+00 +0.0000000000e+00 +3.8073255591e+02 3.8073255595e+02 5.0400000000e-03 0.0000e+00 1.0000e+00
       -1 -1    0    0    0  501 -0.0000000000e+00 -0.0000000000e+00 -5.8057019039e+01 5.8057019258e+01 5.0400000000e-03 0.0000e+00 -1.0000e+00
  1000101  2    1    2    0    0 +9.7997046404e+00 +3.6629081927e+01 +2.6585473262e+02 2.9625410360e+02 1.2510008469e+02 1.7873e+02 0.0000e+00
 -1000101  2    1    2    0    0 -9.7997046404e+00 -3.6629081927e+01 +5.6820804255e+01 1.4253547161e+02 1.2510009199e+02 2.2128e+01 0.0000e+00
       11  1    3    3    0    0 -3.3761884835e-02 -5.4916658591e-02 +5.9473131325e-02 8.7709855370e-02 5.1100000000e-04 0.0000e+00 1.0000e+00
      255  1    3    3    0    0 +9.8334665252e+00 +3.6683998586e+01 +2.6579525949e+02 2.9616639374e+02 1.2500000000e+02 0.0000e+00 0.0000e+00
      -11  1    4    4    0    0 +6.1893337543e-02 -5.2715350683e-02 -2.7937480900e-02 8.5967769483e-02 5.1100000000e-04 0.0000e+00 -1.0000e+00
      255  1    4    4    0    0 -9.8615979780e+00 -3.6576366577e+01 +5.6848741736e+01 1.4244950384e+02 1.2500000000e+02 0.0000e+00 0.0000e+00
<mgrwt>
<rscale>  0 0.29734961E+03</rscale>
<asrwt>0</asrwt>
<pdfrwt beam="1">  1        1 0.58574240E-01 0.29734961E+03</pdfrwt>
<pdfrwt beam="2">  1       -1 0.89318490E-02 0.29734961E+03</pdfrwt>
<totfact> 0.46806386E+03</totfact>
</mgrwt>
</event>
<event>
 8      1 +1.6198320e-01 2.53943400e+02 7.81860800e-03 1.11083800e-01
        2 -1    0    0  501    0 +0.0000000000e+00 +0.0000000000e+00 +1.0863631346e+03 1.0863631346e+03 2.5500000000e-03 0.0000e+00 1.0000e+00
       -2 -1    0    0    0  501 -0.0000000000e+00 -0.0000000000e+00 -1.4840173253e+01 1.4840173472e+01 2.5500000000e-03 0.0000e+00 -1.0000e+00
  1000101  2    1    2    0    0 -1.2960842559e+01 +1.1038318381e+01 +4.7726538903e+02 4.9368218111e+02 1.2510002584e+02 9.5847e+01 0.0000e+00
 -1000101  2    1    2    0    0 +1.2960842559e+01 -1.1038318381e+01 +5.9425757231e+02 6.0752112696e+02 1.2510007810e+02 6.4605e+01 0.0000e+00
       11  1    3    3    0    0 +5.1236107635e-02 -3.1678098584e-02 +6.1109430375e-01 6.1405630837e-01 5.1100000000e-04 0.0000e+00 1.0000e+00
      255  1    3    3    0    0 -1.3012078667e+01 +1.1069996479e+01 +4.7665429473e+02 4.9306812481e+02 1.2500000000e+02 0.0000e+00 0.0000e+00
      -11  1    4    4    0    0 -5.6113122527e-02 +5.3259285032e-02 +6.2637111695e-01 6.3113094618e-01 5.1100000000e-04 0.0000e+00 -1.0000e+00
      255  1    4    4    0    0 +1.3016955682e+01 -1.1091577666e+01 +5.9363120120e+02 6.0688999602e+02 1.2500000000e+02 0.0000e+00 0.0000e+00
<mgrwt>
<rscale>  0 0.25394344E+03</rscale>
<asrwt>0</asrwt>
<pdfrwt beam="1">  1        2 0.16713280E+00 0.25394344E+03</pdfrwt>
<pdfrwt beam="2">  1       -2 0.22831035E-02 0.25394344E+03</pdfrwt>
<totfact> 0.14714685E+04</totfact>
</mgrwt>
</event>
<event>
 8      1 +1.6198320e-01 1.56884800e+03 7.81860800e-03 8.83991700e-02
       -2 -1    0    0    0  501 -0.0000000000e+00 +0.0000000000e+00 +9.0759977277e+02 9.0759977278e+02 2.5500000000e-03 0.0000e+00 -1.0000e+00
        2 -1    0    0  501    0 +0.0000000000e+00 -0.0000000000e+00 -6.7796549653e+02 6.7796549654e+02 2.5500000000e-03 0.0000e+00 1.0000e+00
  1000101  2    1    2    0    0 +1.7967377205e+02 +6.6896973742e+02 -2.3509178743e+02 7.4210602536e+02 1.2510008159e+02 2.1081e+02 0.0000e+00
 -1000101  2    1    2    0    0 -1.7967377205e+02 -6.6896973742e+02 +4.6472606368e+02 8.4345924395e+02 1.2509999203e+02 1.6694e+01 0.0000e+00
       11  1    3    3    0    0 +3.4988229826e-02 +4.9623197298e-01 -1.3550213516e-01 5.1558843760e-01 5.1100000000e-04 0.0000e+00 1.0000e+00
      255  1    3    3    0    0 +1.7963878382e+02 +6.6847350545e+02 -2.3495628530e+02 7.4159043692e+02 1.2500000000e+02 0.0000e+00 0.0000e+00
      -11  1    4    4    0    0 -2.4564232006e-01 -6.0059953073e-01 +4.9670059090e-01 8.1717298282e-01 5.1100000000e-04 0.0000e+00 -1.0000e+00
      255  1    4    4    0    0 -1.7942812973e+02 -6.6836913789e+02 +4.6422936308e+02 8.4264207097e+02 1.2500000000e+02 0.0000e+00 0.0000e+00
<mgrwt>
<rscale>  0 0.15688484E+04</rscale>
<asrwt>0</asrwt>
<pdfrwt beam="1">  1        2 0.10430238E+00 0.15688484E+04</pdfrwt>
<pdfrwt beam="2">  1       -2 0.13963073E+00 0.15688484E+04</pdfrwt>
<totfact> 0.14822182E+01</totfact>
</mgrwt>
</event>
<event>
 8      1 +1.6198320e-01 2.91208500e+02 7.81860800e-03 1.08972000e-01
        2 -1    0    0  501    0 +0.0000000000e+00 +0.0000000000e+00 +1.0055814494e+03 1.0055814494e+03 2.5500000000e-03 0.0000e+00 1.0000e+00
       -2 -1    0    0    0  501 -0.0000000000e+00 -0.0000000000e+00 -2.1082930979e+01 2.1082931133e+01 2.5500000000e-03 0.0000e+00 -1.0000e+00
  1000101  2    1    2    0    0 -3.6335879450e+00 +1.4491057045e+01 +2.3492476119e+02 2.6657621625e+02 1.2510012772e+02 1.5157e+02 0.0000e+00
 -1000101  2    1    2    0    0 +3.6335879450e+00 -1.4491057045e+01 +7.4957375726e+02 7.6008816431e+02 1.2509998504e+02 4.3576e+01 0.0000e+00
       11  1    3    3    0    0 -3.7829494422e-02 -6.9331012821e-02 +2.7434142770e-01 2.8548439548e-01 5.1100000000e-04 0.0000e+00 1.0000e+00
      255  1    3    3    0    0 -3.5957584506e+00 +1.4560388058e+01 +2.3465041976e+02 2.6629073186e+02 1.2500000000e+02 0.0000e+00 0.0000e+00
      -11  1    4    4    0    0 -7.5619232542e-02 -1.1343864102e-02 +2.1194142736e-01 2.2531396170e-01 5.1100000000e-04 0.0000e+00 -1.0000e+00
      255  1    4    4    0    0 +3.7092071776e+00 -1.4479713181e+01 +7.4936181583e+02 7.5986285035e+02 1.2500000000e+02 0.0000e+00 0.0000e+00
<mgrwt>
<rscale>  0 0.29120855E+03</rscale>
<asrwt>0</asrwt>
<pdfrwt beam="1">  1        2 0.15470488E+00 0.29120855E+03</pdfrwt>
<pdfrwt beam="2">  1       -2 0.32435270E-02 0.29120855E+03</pdfrwt>
<totfact> 0.98146452E+03</totfact>
</mgrwt>
</event>
<event>
 8      1 +1.6198320e-01 2.54492700e+02 7.81860800e-03 1.11049800e-01
       -2 -1    0    0    0  501 -0.0000000000e+00 +0.0000000000e+00 +3.8160190118e+01 3.8160190203e+01 2.5500000000e-03 0.0000e+00 -1.0000e+00
        2 -1    0    0  501    0 +0.0000000000e+00 -0.0000000000e+00 -4.2430694079e+02 4.2430694079e+02 2.5500000000e-03 0.0000e+00 1.0000e+00
  1000101  2    1    2    0    0 +2.1101898735e+01 -5.1881914999e+00 -2.0821437607e+02 2.4387587548e+02 1.2509999511e+02 1.9800e+02 0.0000e+00
 -1000101  2    1    2    0    0 -2.1101898735e+01 +5.1881914999e+00 -1.7793237459e+02 2.1859125552e+02 1.2509995842e+02 7.0068e+00 0.0000e+00
       11  1    3    3    0    0 -4.3023820889e-02 -2.0506527361e-03 -3.0476612030e-01 3.0779522990e-01 5.1100000000e-04 0.0000e+00 1.0000e+00
      255  1    3    3    0    0 +2.1144922556e+01 -5.1861408472e+00 -2.0790960995e+02 2.4356808025e+02 1.2500000000e+02 0.0000e+00 0.0000e+00
      -11  1    4    4    0    0 -2.3812973208e-03 +9.1006211646e-02 -6.2418638758e-02 1.1038183148e-01 5.1100000000e-04 0.0000e+00 -1.0000e+00
      255  1    4    4    0    0 -2.1099517438e+01 +5.0971852883e+00 -1.7786995596e+02 2.1848087368e+02 1.2500000000e+02 0.0000e+00 0.0000e+00
<mgrwt>
<rscale>  0 0.25449270E+03</rscale>
<asrwt>0</asrwt>
<pdfrwt beam="1">  1        2 0.65277988E-01 0.25449270E+03</pdfrwt>
<pdfrwt beam="2">  1       -2 0.58707988E-02 0.25449270E+03</pdfrwt>
<totfact> 0.11319498E+04</totfact>
</mgrwt>
</event>
<event>
 8      1 +1.6198320e-01 3.72293500e+02 7.81860800e-03 1.05381900e-01
       -2 -1    0    0    0  501 -0.0000000000e+00 +0.0000000000e+00 +1.8364538678e+01 1.8364538855e+01 2.5500000000e-03 0.0000e+00 -1.0000e+00
        2 -1    0    0  501    0 +0.0000000000e+00 -0.0000000000e+00 -1.8868219044e+03 1.8868219044e+03 2.5500000000e-03 0.0000e+00 1.0000e+00
  1000101  2    1    2    0    0 -7.5566360737e+01 +4.1754530746e+01 -1.4841299447e+03 1.4918932587e+03 1.2510030702e+02 5.0291e+01 0.0000e+00
 -1000101  2    1    2    0    0 +7.5566360737e+01 -4.1754530746e+01 -3.8432742099e+02 4.1329318455e+02 1.2509985674e+02 4.1387e+02 0.0000e+00
       11  1    3    3    0    0 -1.4564286046e-01 +1.0944860707e-01 -2.1216020663e+00 2.1294098781e+00 5.1100000000e-04 0.0000e+00 1.0000e+00
      255  1    3    3    0    0 -7.5420717876e+01 +4.1645082139e+01 -1.4820083426e+03 1.4897638488e+03 1.2500000000e+02 0.0000e+00 0.0000e+00
      -11  1    4    4    0    0 +6.8420790359e-02 +6.9038646373e-02 -2.4413125005e-01 2.6276998995e-01 5.1100000000e-04 0.0000e+00 -1.0000e+00
      255  1    4    4    0    0 +7.5497939946e+01 -4.1823569393e+01 -3.8408328974e+02 4.1303041456e+02 1.2500000000e+02 0.0000e+00 0.0000e+00
<mgrwt>
<rscale>  0 0.37229351E+03</rscale>
<asrwt>0</asrwt>
<pdfrwt beam="1">  1        2 0.29028014E+00 0.37229351E+03</pdfrwt>
<pdfrwt beam="2">  1       -2 0.28253151E-02 0.37229351E+03</pdfrwt>
<totfact> 0.39411401E+03</totfact>
</mgrwt>
</event>
<event>
 8      1 +1.6198320e-01 2.97333000e+02 7.81860800e-03 1.08658100e-01
       -2 -1    0    0    0  501 -0.0000000000e+00 +0.0000000000e+00 +2.2408000028e+01 2.2408000173e+01 2.5500000000e-03 0.0000e+00 -1.0000e+00
        2 -1    0    0  501    0 +0.0000000000e+00 -0.0000000000e+00 -9.8633171018e+02 9.8633171018e+02 2.5500000000e-03 0.0000e+00 1.0000e+00
  1000101  2    1    2    0    0 -6.4493963234e+01 -4.7142470825e+01 -5.1030888869e+02 5.3145757439e+02 1.2510039030e+02 3.8803e+02 0.0000e+00
 -1000101  2    1    2    0    0 +6.4493963234e+01 +4.7142470825e+01 -4.5361482146e+02 4.7728213596e+02 1.2509974904e+02 2.7919e+01 0.0000e+00
       11  1    3    3    0    0 +2.4179372731e-02 -2.8976469243e-02 -5.5206973562e-01 5.5335841183e-01 5.1100000000e-04 0.0000e+00 1.0000e+00
      255  1    3    3    0    0 -6.4518142606e+01 -4.7113494356e+01 -5.0975681896e+02 5.3090421598e+02 1.2500000000e+02 0.0000e+00 0.0000e+00
      -11  1    4    4    0    0 +9.9308267230e-02 -2.0369229175e-02 -1.5817949041e-01 1.8787775213e-01 5.1100000000e-04 0.0000e+00 -1.0000e+00
      255  1    4    4    0    0 +6.4394654966e+01 +4.7162840054e+01 -4.5345664197e+02 4.7709425821e+02 1.2500000000e+02 0.0000e+00 0.0000e+00
<mgrwt>
<rscale>  0 0.29733295E+03</rscale>
<asrwt>0</asrwt>
<pdfrwt beam="1">  1        2 0.15174331E+00 0.29733295E+03</pdfrwt>
<pdfrwt beam="2">  1       -2 0.34473854E-02 0.29733295E+03</pdfrwt>
<totfact> 0.92115610E+03</totfact>
</mgrwt>
</event>
<event>
 8      1 +1.6198320e-01 3.17268400e+02 7.81860800e-03 1.07691300e-01
       -2 -1    0    0    0  501 -0.0000000000e+00 +0.0000000000e+00 +3.7939104252e+01 3.7939104337e+01 2.5500000000e-03 0.0000e+00 -1.0000e+00
        2 -1    0    0  501    0 +0.0000000000e+00 -0.0000000000e+00 -6.6329485649e+02 6.6329485650e+02 2.5500000000e-03 0.0000e+00 1.0000e+00
  1000101  2    1    2    0    0 -1.2330056727e+01 +7.6387003308e+01 -4.4395485368e+02 4.6768890974e+02 1.2509995850e+02 2.5012e+02 0.0000e+00
 -1000101  2    1    2    0    0 +1.2330056727e+01 -7.6387003308e+01 -1.8140089856e+02 2.3354505109e+02 1.2509996130e+02 1.6201e+02 0.0000e+00
       11  1    3    3    0    0 +8.9078575061e-02 +3.6374304858e-02 -3.0965957774e-01 3.2426439489e-01 5.1100000000e-04 0.0000e+00 1.0000e+00
      255  1    3    3    0    0 -1.2419135302e+01 +7.6350629003e+01 -4.4364519410e+02 4.6736464535e+02 1.2500000000e+02 0.0000e+00 0.0000e+00
      -11  1    4    4    0    0 +1.5164934674e-03 -1.7682353845e-01 -2.2770544217e-01 2.8830347382e-01 5.1100000000e-04 0.0000e+00 -1.0000e+00
      255  1    4    4    0    0 +1.2328540234e+01 -7.6210179769e+01 -1.8117319312e+02 2.3325674762e+02 1.2500000000e+02 0.0000e+00 0.0000e+00
<mgrwt>
<rscale>  0 0.31726842E+03</rscale>
<asrwt>0</asrwt>
<pdfrwt beam="1">  1        2 0.10204535E+00 0.31726842E+03</pdfrwt>
<pdfrwt beam="2">  1       -2 0.58367858E-02 0.31726842E+03</pdfrwt>
<totfact> 0.69266527E+03</totfact>
</mgrwt>
</event>
<event>
 8      1 +1.6198320e-01 7.85321600e+02 7.81860800e-03 9.58151000e-02
        2 -1    0    0  501    0 +0.0000000000e+00 +0.0000000000e+00 +1.2934528567e+03 1.2934528567e+03 2.5500000000e-03 0.0000e+00 1.0000e+00
       -2 -1    0    0    0  501 -0.0000000000e+00 -0.0000000000e+00 -1.1920224656e+02 1.1920224659e+02 2.5500000000e-03 0.0000e+00 -1.0000e+00
  1000101  2    1    2    0    0 -3.2386229652e+02 +6.0445980241e+01 +8.9864890342e+02 9.6527735268e+02 1.2510000942e+02 1.8495e+01 0.0000e+00
 -1000101  2    1    2    0    0 +3.2386229652e+02 -6.0445980241e+01 +2.7560170669e+02 4.4737775057e+02 1.2510014925e+02 1.5979e+02 0.0000e+00
       11  1    3    3    0    0 -1.1242909441e-01 +5.1205066546e-02 +5.9756176183e-01 6.1019880402e-01 5.1100000000e-04 0.0000e+00 1.0000e+00
      255  1    3    3    0    0 -3.2374986742e+02 +6.0394775175e+01 +8.9805134165e+02 9.6466715388e+02 1.2500000000e+02 0.0000e+00 0.0000e+00
      -11  1    4    4    0    0 +4.9278938275e-01 -3.6593790249e-02 +3.5748908837e-01 6.0990096791e-01 5.1100000000e-04 0.0000e+00 -1.0000e+00
      255  1    4    4    0    0 +3.2336950713e+02 -6.0409386451e+01 +2.7524421760e+02 4.4676784960e+02 1.2500000000e+02 0.0000e+00 0.0000e+00
<mgrwt>
<rscale>  0 0.78532156E+03</rscale>
<asrwt>0</asrwt>
<pdfrwt beam="1">  1        2 0.19899275E+00 0.78532156E+03</pdfrwt>
<pdfrwt beam="2">  1       -2 0.18338807E-01 0.78532156E+03</pdfrwt>
<totfact> 0.41719540E+02</totfact>
</mgrwt>
</event>
<event>
 8      1 +1.6198320e-01 3.09735300e+02 7.81860800e-03 1.08047300e-01
       -2 -1    0    0    0  501 -0.0000000000e+00 +0.0000000000e+00 +3.3328735530e+01 3.3328735628e+01 2.5500000000e-03 0.0000e+00 -1.0000e+00
        2 -1    0    0  501    0 +0.0000000000e+00 -0.0000000000e+00 -7.1961887550e+02 7.1961887550e+02 2.5500000000e-03 0.0000e+00 1.0000e+00
  1000101  2    1    2    0    0 +6.5788201216e+01 -4.1569374799e+01 -4.5916412441e+02 4.8222177327e+02 1.2510014039e+02 2.0722e+01 0.0000e+00
 -1000101  2    1    2    0    0 -6.5788201216e+01 +4.1569374799e+01 -2.2712601555e+02 2.7072583786e+02 1.2510056756e+02 1.5068e+01 0.0000e+00
       11  1    3    3    0    0 +1.1584230177e-02 +5.0784624863e-02 -4.1677464971e-01 4.2001743092e-01 5.1100000000e-04 0.0000e+00 1.0000e+00
      255  1    3    3    0    0 +6.5776616986e+01 -4.1620159424e+01 -4.5874734976e+02 4.8180175584e+02 1.2500000000e+02 0.0000e+00 0.0000e+00
      -11  1    4    4    0    0 +4.3607221604e-02 -2.6700224325e-02 -3.8298220613e-02 6.3886669802e-02 5.1100000000e-04 0.0000e+00 -1.0000e+00
      255  1    4    4    0    0 -6.5831808437e+01 +4.1596075023e+01 -2.2708771733e+02 2.7066195119e+02 1.2500000000e+02 0.0000e+00 0.0000e+00
<mgrwt>
<rscale>  0 0.30973529E+03</rscale>
<asrwt>0</asrwt>
<pdfrwt beam="1">  1        2 0.11071058E+00 0.30973529E+03</pdfrwt>
<pdfrwt beam="2">  1       -2 0.51274983E-02 0.30973529E+03</pdfrwt>
<totfact> 0.76459723E+03</totfact>
</mgrwt>
</event>
<event>
 8      1 +1.6198320e-01 4.28288400e+02 7.81860800e-03 1.03440200e-01
        2 -1    0    0  501    0 +0.0000000000e+00 +0.0000000000e+00 +7.3963228966e+02 7.3963228966e+02 2.5500000000e-03 0.0000e+00 1.0000e+00
       -2 -1    0    0    0  501 -0.0000000000e+00 -0.0000000000e+00 -6.2000712747e+01 6.2000712799e+01 2.5500000000e-03 0.0000e+00 -1.0000e+00
  1000101  2    1    2    0    0 +1.5719034010e+01 +1.6954895676e+02 +2.7360567660e+02 3.4569347344e+02 1.2509985827e+02 2.6360e+01 0.0000e+00
 -1000101  2    1    2    0    0 -1.5719034010e+01 -1.6954895676e+02 +4.0402590031e+02 4.5593952902e+02 1.2509991701e+02 5.9397e+01 0.0000e+00
       11  1    3    3    0    0 +1.2465290934e-02 +2.0111050103e-01 +4.3683360216e-01 4.8106618485e-01 5.1100000000e-04 0.0000e+00 1.0000e+00
      255  1    3    3    0    0 +1.5706568719e+01 +1.6934784626e+02 +2.7316884300e+02 3.4521240725e+02 1.2500000000e+02 0.0000e+00 0.0000e+00
      -11  1    4    4    0    0 -5.9337081470e-02 -2.3539741714e-01 +3.3330787786e-01 4.1234358949e-01 5.1100000000e-04 0.0000e+00 -1.0000e+00
      255  1    4    4    0    0 -1.5659696929e+01 -1.6931355935e+02 +4.0369259243e+02 4.5552718544e+02 1.2500000000e+02 0.0000e+00 0.0000e+00
<mgrwt>
<rscale>  0 0.42828836E+03</rscale>
<asrwt>0</asrwt>
<pdfrwt beam="1">  1        2 0.11378958E+00 0.42828836E+03</pdfrwt>
<pdfrwt beam="2">  1       -2 0.95385715E-02 0.42828836E+03</pdfrwt>
<totfact> 0.28180999E+03</totfact>
</mgrwt>
</event>
<event>
 8      1 +1.6198320e-01 3.06022600e+02 7.81860800e-03 1.08226800e-01
       -2 -1    0    0    0  501 -0.0000000000e+00 +0.0000000000e+00 +1.3084870540e+01 1.3084870788e+01 2.5500000000e-03 0.0000e+00 -1.0000e+00
        2 -1    0    0  501    0 +0.0000000000e+00 -0.0000000000e+00 -1.7892764419e+03 1.7892764419e+03 2.5500000000e-03 0.0000e+00 1.0000e+00
  1000101  2    1    2    0    0 +4.6071634508e+01 -6.1791281765e+01 -6.3672225485e+02 6.5345695715e+02 1.2509998810e+02 1.2005e+00 0.0000e+00
 -1000101  2    1    2    0    0 -4.6071634508e+01 +6.1791281765e+01 -1.1394693165e+03 1.1489043555e+03 1.2510050717e+02 4.0847e+00 0.0000e+00
       11  1    3    3    0    0 +2.6327295848e-02 -1.2093619248e-01 -2.9578367097e-01 3.2063519815e-01 5.1100000000e-04 0.0000e+00 1.0000e+00
      255  1    3    3    0    0 +4.6045307212e+01 -6.1670345572e+01 -6.3642647118e+02 6.5313632195e+02 1.2500000000e+02 0.0000e+00 0.0000e+00
      -11  1    4    4    0    0 -6.9276331992e-02 +1.5914911025e-01 -1.2369642894e+00 1.2490830892e+00 5.1100000000e-04 0.0000e+00 -1.0000e+00
      255  1    4    4    0    0 -4.6002358176e+01 +6.1632132655e+01 -1.1382323522e+03 1.1476552724e+03 1.2500000000e+02 0.0000e+00 0.0000e+00
<mgrwt>
<rscale>  0 0.30602255E+03</rscale>
<asrwt>0</asrwt>
<pdfrwt beam="1">  1        2 0.27527310E+00 0.30602255E+03</pdfrwt>
<pdfrwt beam="2">  1       -2 0.20130584E-02 0.30602255E+03</pdfrwt>
<totfact> 0.73501081E+03</totfact>
</mgrwt>
</event>
<event>
 8      1 +1.6198320e-01 3.01730300e+02 7.81860800e-03 1.08437900e-01
        3 -1    0    0  501    0 +0.0000000000e+00 +0.0000000000e+00 +1.2496007958e+02 1.2496012040e+02 1.0100000000e-01 0.0000e+00 -1.0000e+00
       -3 -1    0    0    0  501 -0.0000000000e+00 -0.0000000000e+00 -1.8214039072e+02 1.8214041872e+02 1.0100000000e-01 0.0000e+00 1.0000e+00
  1000101  2    1    2    0    0 +4.5874049924e+01 -3.6865626769e+01 +3.2873136138e+01 1.4210609617e+02 1.2509994643e+02 2.8737e+02 0.0000e+00
 -1000101  2    1    2    0    0 -4.5874049924e+01 +3.6865626769e+01 -9.0053447274e+01 1.6499444295e+02 1.2510011968e+02 4.5157e+01 0.0000e+00
       11  1    3    3    0    0 +9.7384530492e-03 +3.6358216258e-02 -5.7157638742e-02 6.8439857868e-02 5.1100000000e-04 0.0000e+00 1.0000e+00
      255  1    3    3    0    0 +4.5864311471e+01 -3.6901984985e+01 +3.2930293776e+01 1.4203765631e+02 1.2500000000e+02 0.0000e+00 0.0000e+00
      -11  1    4    4    0    0 -6.6610811956e-02 -6.6839910669e-02 -5.0484625310e-02 1.0702117754e-01 5.1100000000e-04 0.0000e+00 -1.0000e+00
      255  1    4    4    0    0 -4.5807439112e+01 +3.6932466679e+01 -9.0002962649e+01 1.6488742177e+02 1.2500000000e+02 0.0000e+00 0.0000e+00
<mgrwt>
<rscale>  0 0.30173027E+03</rscale>
<asrwt>0</asrwt>
<pdfrwt beam="1">  1        3 0.19224633E-01 0.30173027E+03</pdfrwt>
<pdfrwt beam="2">  1       -3 0.28021604E-01 0.30173027E+03</pdfrwt>
<totfact> 0.75222307E+02</totfact>
</mgrwt>
</event>
<event>
 8      1 +1.6198320e-01 3.10626600e+02 7.81860800e-03 1.08004600e-01
        2 -1    0    0  501    0 +0.0000000000e+00 +0.0000000000e+00 +7.9614825112e+02 7.9614825112e+02 2.5500000000e-03 0.0000e+00 1.0000e+00
       -2 -1    0    0    0  501 -0.0000000000e+00 -0.0000000000e+00 -3.0298663217e+01 3.0298663325e+01 2.5500000000e-03 0.0000e+00 -1.0000e+00
  1000101  2    1    2    0    0 -4.6155417547e+01 -6.1591231784e+01 +5.1723408232e+02 5.3768486805e+02 1.2510043573e+02 4.4634e+01 0.0000e+00
 -1000101  2    1    2    0    0 +4.6155417547e+01 +6.1591231784e+01 +2.4861550558e+02 2.8876204639e+02 1.2510014956e+02 3.0928e+01 0.0000e+00
       11  1    3    3    0    0 +3.5051691510e-03 +4.0790208271e-02 +4.3254003938e-01 4.3447355971e-01 5.1100000000e-04 0.0000e+00 1.0000e+00
      255  1    3    3    0    0 -4.6158922716e+01 -6.1632021993e+01 +5.1680154228e+02 5.3725039449e+02 1.2500000000e+02 0.0000e+00 0.0000e+00
      -11  1    4    4    0    0 -4.7775775978e-02 -1.3045139258e-03 +1.8237351934e-02 5.1157488735e-02 5.1100000000e-04 0.0000e+00 -1.0000e+00
      255  1    4    4    0    0 +4.6203193323e+01 +6.1592536298e+01 +2.4859726823e+02 2.8871088891e+02 1.2500000000e+02 0.0000e+00 0.0000e+00
<mgrwt>
<rscale>  0 0.31062664E+03</rscale>
<asrwt>0</asrwt>
<pdfrwt beam="1">  1        2 0.12248434E+00 0.31062664E+03</pdfrwt>
<pdfrwt beam="2">  1       -2 0.46613331E-02 0.31062664E+03</pdfrwt>
<totfact> 0.77895545E+03</totfact>
</mgrwt>
</event>
<event>
 8      1 +1.6198320e-01 3.32489300e+02 7.81860800e-03 1.07004100e-01
       -2 -1    0    0    0  501 -0.0000000000e+00 +0.0000000000e+00 +6.6669230337e+01 6.6669230386e+01 2.5500000000e-03 0.0000e+00 1.0000e+00
        2 -1    0    0  501    0 +0.0000000000e+00 -0.0000000000e+00 -4.1454337430e+02 4.1454337430e+02 2.5500000000e-03 0.0000e+00 -1.0000e+00
  1000101  2    1    2    0    0 +1.3812834494e+01 +1.0522418675e+02 -1.3498416058e+02 2.1244681516e+02 1.2509996720e+02 4.9648e+01 0.0000e+00
 -1000101  2    1    2    0    0 -1.3812834494e+01 -1.0522418675e+02 -2.1288998338e+02 2.6876578952e+02 1.2509988297e+02 1.8600e+02 0.0000e+00
       11  1    3    3    0    0 +3.2260899160e-02 +1.8065923752e-01 -7.5698516110e-02 1.9851713321e-01 5.1100000000e-04 0.0000e+00 1.0000e+00
      255  1    3    3    0    0 +1.3780573595e+01 +1.0504352752e+02 -1.3490846206e+02 2.1224829803e+02 1.2500000000e+02 0.0000e+00 0.0000e+00
      -11  1    4    4    0    0 -2.4728966949e-02 -1.2266740307e-01 -3.5866970505e-01 3.7987238913e-01 5.1100000000e-04 0.0000e+00 -1.0000e+00
      255  1    4    4    0    0 -1.3788105527e+01 -1.0510151935e+02 -2.1253131368e+02 2.6838591713e+02 1.2500000000e+02 0.0000e+00 0.0000e+00
<mgrwt>
<rscale>  0 0.33248932E+03</rscale>
<asrwt>0</asrwt>
<pdfrwt beam="1">  1        2 0.63775902E-01 0.33248932E+03</pdfrwt>
<pdfrwt beam="2">  1       -2 0.10256805E-01 0.33248932E+03</pdfrwt>
<totfact> 0.48998766E+03</totfact>
</mgrwt>
</event>
<event>
 8      1 +1.6198320e-01 2.55275000e+02 7.81860800e-03 1.11001600e-01
        1 -1    0    0  501    0 +0.0000000000e+00 +0.0000000000e+00 +1.3941898508e+03 1.3941898508e+03 5.0400000000e-03 0.0000e+00 -1.0000e+00
       -1 -1    0    0    0  501 -0.0000000000e+00 -0.0000000000e+00 -1.1685154975e+01 1.1685156062e+01 5.0400000000e-03 0.0000e+00 1.0000e+00
  1000101  2    1    2    0    0 +9.2828296711e+00 -1.2083404523e+01 +5.7985632412e+02 5.9339324837e+02 1.2510000402e+02 2.6961e+01 0.0000e+00
 -1000101  2    1    2    0    0 -9.2828296711e+00 +1.2083404523e+01 +8.0264837169e+02 8.1248175848e+02 1.2510003873e+02 2.9226e+01 0.0000e+00
       11  1    3    3    0    0 -3.4954282147e-03 -1.2984041832e-02 -6.4921037495e-03 1.4940277557e-02 5.1100000000e-04 0.0000e+00 1.0000e+00
      255  1    3    3    0    0 +9.2863250993e+00 -1.2070420482e+01 +5.7986281622e+02 5.9337830810e+02 1.2500000000e+02 0.0000e+00 0.0000e+00
      -11  1    4    4    0    0 -6.5146258941e-02 +2.2665109450e-02 +1.1975242941e+00 1.1995092489e+00 5.1100000000e-04 0.0000e+00 -1.0000e+00
      255  1    4    4    0    0 -9.2176834121e+00 +1.2060739414e+01 +8.0145084739e+02 8.1128224923e+02 1.2500000000e+02 0.0000e+00 0.0000e+00
<mgrwt>
<rscale>  0 0.25527495E+03</rscale>
<asrwt>0</asrwt>
<pdfrwt beam="1">  1        1 0.21449080E+00 0.25527495E+03</pdfrwt>
<pdfrwt beam="2">  1       -1 0.17977157E-02 0.25527495E+03</pdfrwt>
<totfact> 0.67385935E+03</totfact>
</mgrwt>
</event>
<event>
 8      1 +1.6198320e-01 5.64952300e+02 7.81860800e-03 9.98091100e-02
       -2 -1    0    0    0  501 -0.0000000000e+00 +0.0000000000e+00 +8.6242086498e+01 8.6242086535e+01 2.5500000000e-03 0.0000e+00 -1.0000e+00
        2 -1    0    0  501    0 +0.0000000000e+00 -0.0000000000e+00 -9.2521835310e+02 9.2521835310e+02 2.5500000000e-03 0.0000e+00 1.0000e+00
  1000101  2    1    2    0    0 +1.9921775177e+02 +1.4976495254e+02 -3.3891230588e+02 4.3889498214e+02 1.2509996260e+02 1.5357e+01 0.0000e+00
 -1000101  2    1    2    0    0 -1.9921775177e+02 -1.4976495254e+02 -5.0006396072e+02 5.7256545749e+02 1.2509989879e+02 1.7593e+02 0.0000e+00
       11  1    3    3    0    0 +3.3500087247e-01 +2.3636335335e-01 -4.5252285339e-01 6.1063115980e-01 5.1100000000e-04 0.0000e+00 1.0000e+00
      255  1    3    3    0    0 +1.9888275090e+02 +1.4952858919e+02 -3.3845978303e+02 4.3828435098e+02 1.2500000000e+02 0.0000e+00 0.0000e+00
      -11  1    4    4    0    0 -3.3964097983e-01 -2.4928328118e-01 -7.5704910265e-01 8.6638429949e-01 5.1100000000e-04 0.0000e+00 -1.0000e+00
      255  1    4    4    0    0 -1.9887811079e+02 -1.4951566926e+02 -4.9930691161e+02 5.7169907319e+02 1.2500000000e+02 0.0000e+00 0.0000e+00
<mgrwt>
<rscale>  0 0.56495225E+03</rscale>
<asrwt>0</asrwt>
<pdfrwt beam="1">  1        2 0.14234128E+00 0.56495225E+03</pdfrwt>
<pdfrwt beam="2">  1       -2 0.13268014E-01 0.56495225E+03</pdfrwt>
<totfact> 0.12223271E+03</totfact>
</mgrwt>
</event>
<event>
 8      1 +1.6198320e-01 2.60150500e+02 7.81860800e-03 1.10705300e-01
       -1 -1    0    0    0  501 -0.0000000000e+00 +0.0000000000e+00 +1.2882119793e+02 1.2882119803e+02 5.0400000000e-03 0.0000e+00 -1.0000e+00
        1 -1    0    0  501    0 +0.0000000000e+00 -0.0000000000e+00 -1.3134149988e+02 1.3134149998e+02 5.0400000000e-03 0.0000e+00 1.0000e+00
  1000101  2    1    2    0    0 +1.3154787235e+01 +9.8687672632e+00 +3.0350368720e+01 1.2977512164e+02 1.2509994532e+02 2.7767e+02 0.0000e+00
 -1000101  2    1    2    0    0 -1.3154787235e+01 -9.8687672632e+00 -3.2870670677e+01 1.3038757637e+02 1.2509995238e+02 9.2311e+01 0.0000e+00
       11  1    3    3    0    0 -4.2795642599e-02 -7.3987250422e-02 +4.6140036090e-02 9.7132611936e-02 5.1100000000e-04 0.0000e+00 1.0000e+00
      255  1    3    3    0    0 +1.3197582878e+01 +9.9427545136e+00 +3.0304228684e+01 1.2967798902e+02 1.2500000000e+02 0.0000e+00 0.0000e+00
      -11  1    4    4    0    0 -6.5504251239e-03 -6.2494091731e-02 +5.9194340231e-02 8.6328735697e-02 5.1100000000e-04 0.0000e+00 -1.0000e+00
      255  1    4    4    0    0 -1.3148236810e+01 -9.8062731715e+00 -3.2929865017e+01 1.3030124763e+02 1.2500000000e+02 0.0000e+00 0.0000e+00
<mgrwt>
<rscale>  0 0.26015049E+03</rscale>
<asrwt>0</asrwt>
<pdfrwt beam="1">  1        1 0.20206385E-01 0.26015049E+03</pdfrwt>
<pdfrwt beam="2">  1       -1 0.19818646E-01 0.26015049E+03</pdfrwt>
<totfact> 0.51067899E+03</totfact>
</mgrwt>
</event>
<event>
 8      1 +1.6198320e-01 3.52719300e+02 7.81860800e-03 1.06150400e-01
        2 -1    0    0  501    0 +0.0000000000e+00 +0.0000000000e+00 +1.5872379267e+03 1.5872379268e+03 2.5500000000e-03 0.0000e+00 1.0000e+00
       -2 -1    0    0    0  501 -0.0000000000e+00 -0.0000000000e+00 -1.9595500967e+01 1.9595501133e+01 2.5500000000e-03 0.0000e+00 -1.0000e+00
  1000101  2    1    2    0    0 -7.3384238263e+01 -6.7072440220e+01 +1.1237754932e+03 1.1350794395e+03 1.2510002488e+02 1.6958e+00 0.0000e+00
 -1000101  2    1    2    0    0 +7.3384238263e+01 +6.7072440220e+01 +4.4386693259e+02 4.7175398838e+02 1.2510001216e+02 2.4405e+01 0.0000e+00
       11  1    3    3    0    0 +1.5563016687e-02 +1.0845603776e-02 +9.2152261132e-01 9.2171797146e-01 5.1100000000e-04 0.0000e+00 1.0000e+00
      255  1    3    3    0    0 -7.3399801279e+01 -6.7083285824e+01 +1.1228539706e+03 1.1341577215e+03 1.2500000000e+02 0.0000e+00 0.0000e+00
      -11  1    4    4    0    0 +6.8523075460e-03 -4.8683163430e-02 +2.7587948995e-01 2.8022626326e-01 5.1100000000e-04 0.0000e+00 -1.0000e+00
      255  1    4    4    0    0 +7.3377385955e+01 +6.7121123384e+01 +4.4359105311e+02 4.7147376212e+02 1.2500000000e+02 0.0000e+00 0.0000e+00
<mgrwt>
<rscale>  0 0.35271928E+03</rscale>
<asrwt>0</asrwt>
<pdfrwt beam="1">  1        2 0.24419046E+00 0.35271928E+03</pdfrwt>
<pdfrwt beam="2">  1       -2 0.30146923E-02 0.35271928E+03</pdfrwt>
<totfact> 0.51636256E+03</totfact>
</mgrwt>
</event>
<event>
 8      1 +1.6198320e-01 2.82718500e+02 7.81860800e-03 1.09421300e-01
        2 -1    0    0  501    0 +0.0000000000e+00 +0.0000000000e+00 +3.2996665283e+02 3.2996665284e+02 2.5500000000e-03 0.0000e+00 1.0000e+00
       -2 -1    0    0    0  501 -0.0000000000e+00 -0.0000000000e+00 -6.0558973110e+01 6.0558973164e+01 2.5500000000e-03 0.0000e+00 -1.0000e+00
  1000101  2    1    2    0    0 +5.8627686874e+01 -7.3340774515e+00 +9.4635105184e+01 1.6762103896e+02 1.2510002082e+02 5.2535e+01 0.0000e+00
 -1000101  2    1    2    0    0 -5.8627686874e+01 +7.3340774515e+00 +1.7477257453e+02 2.2290458703e+02 1.2509999102e+02 4.3474e+01 0.0000e+00
       11  1    3    3    0    0 +1.3141847455e-01 +4.8734140385e-04 +1.7715875593e-01 2.2058227236e-01 5.1100000000e-04 0.0000e+00 1.0000e+00
      255  1    3    3    0    0 +5.8496268400e+01 -7.3345647929e+00 +9.4457946428e+01 1.6740045669e+02 1.2500000000e+02 0.0000e+00 0.0000e+00
      -11  1    4    4    0    0 -1.5209391062e-01 +3.7664403903e-02 +1.8755314992e-01 2.4439232831e-01 5.1100000000e-04 0.0000e+00 -1.0000e+00
      255  1    4    4    0    0 -5.8475592964e+01 +7.2964130476e+00 +1.7458502138e+02 2.2266019471e+02 1.2500000000e+02 0.0000e+00 0.0000e+00
<mgrwt>
<rscale>  0 0.28271853E+03</rscale>
<asrwt>0</asrwt>
<pdfrwt beam="1">  1        2 0.50764099E-01 0.28271853E+03</pdfrwt>
<pdfrwt beam="2">  1       -2 0.93167654E-02 0.28271853E+03</pdfrwt>
<totfact> 0.72813658E+03</totfact>
</mgrwt>
</event>
<event>
 8      1 +1.6198320e-01 3.12799800e+02 7.81860800e-03 1.07901200e-01
       -2 -1    0    0    0  501 -0.0000000000e+00 +0.0000000000e+00 +2.5243635046e+01 2.5243635175e+01 2.5500000000e-03 0.0000e+00 -1.0000e+00
        2 -1    0    0  501    0 +0.0000000000e+00 -0.0000000000e+00 -9.6899376913e+02 9.6899376913e+02 2.5500000000e-03 0.0000e+00 1.0000e+00
  1000101  2    1    2    0    0 +8.5709273751e+01 +9.3571305925e+00 -3.5391499144e+02 3.8514863199e+02 1.2510000824e+02 1.9883e+02 0.0000e+00
 -1000101  2    1    2    0    0 -8.5709273751e+01 -9.3571305925e+00 -5.8983514265e+02 6.0908877232e+02 1.2509996628e+02 8.5044e+01 0.0000e+00
       11  1    3    3    0    0 +6.3303679306e-02 +8.2551119170e-02 -4.5364241484e-01 4.6541781740e-01 5.1100000000e-04 0.0000e+00 1.0000e+00
      255  1    3    3    0    0 +8.5645970072e+01 +9.2745794733e+00 -3.5346134902e+02 3.8468321417e+02 1.2500000000e+02 0.0000e+00 0.0000e+00
      -11  1    4    4    0    0 -6.8654169640e-02 +9.1253160732e-02 -5.1426372227e-01 5.2679025382e-01 5.1100000000e-04 0.0000e+00 -1.0000e+00
      255  1    4    4    0    0 -8.5640619582e+01 -9.4483837532e+00 -5.8932087892e+02 6.0856198206e+02 1.2500000000e+02 0.0000e+00 0.0000e+00
<mgrwt>
<rscale>  0 0.31279978E+03</rscale>
<asrwt>0</asrwt>
<pdfrwt beam="1">  1        2 0.14907594E+00 0.31279978E+03</pdfrwt>
<pdfrwt beam="2">  1       -2 0.38836369E-02 0.31279978E+03</pdfrwt>
<totfact> 0.79040428E+03</totfact>
</mgrwt>
</event>
<event>
 8      1 +1.6198320e-01 3.94944000e+02 7.81860800e-03 1.04554500e-01
        2 -1    0    0  501    0 +0.0000000000e+00 +0.0000000000e+00 +1.9335298595e+03 1.9335298595e+03 2.5500000000e-03 0.0000e+00 1.0000e+00
       -2 -1    0    0    0  501 -0.0000000000e+00 -0.0000000000e+00 -2.0167873242e+01 2.0167873403e+01 2.5500000000e-03 0.0000e+00 -1.0000e+00
  1000101  2    1    2    0    0 +9.7077979048e+01 +1.1773642501e+01 +1.5374251909e+03 1.5456031201e+03 1.2510009903e+02 5.9125e+01 0.0000e+00
 -1000101  2    1    2    0    0 -9.7077979048e+01 -1.1773642501e+01 +3.7593679538e+02 4.0809461276e+02 1.2509990476e+02 9.1174e+01 0.0000e+00
       11  1    3    3    0    0 +1.1905684001e-01 -6.1262136869e-02 +2.0165042071e+00 2.0209445957e+00 5.1100000000e-04 0.0000e+00 1.0000e+00
      255  1    3    3    0    0 +9.6958922208e+01 +1.1834904638e+01 +1.5354086866e+03 1.5435821755e+03 1.2500000000e+02 0.0000e+00 0.0000e+00
      -11  1    4    4    0    0 -1.0777658486e-01 +5.4085268937e-02 +1.4716898113e-01 1.9026291990e-01 5.1100000000e-04 0.0000e+00 -1.0000e+00
      255  1    4    4    0    0 -9.6970202463e+01 -1.1827727770e+01 +3.7578962640e+02 4.0790434984e+02 1.2500000000e+02 0.0000e+00 0.0000e+00
<mgrwt>
<rscale>  0 0.39494397E+03</rscale>
<asrwt>0</asrwt>
<pdfrwt beam="1">  1        2 0.29746626E+00 0.39494397E+03</pdfrwt>
<pdfrwt beam="2">  1       -2 0.31027485E-02 0.39494397E+03</pdfrwt>
<totfact> 0.32312465E+03</totfact>
</mgrwt>
</event>
<event>
 8      1 +1.6198320e-01 5.03432600e+02 7.81860800e-03 1.01288700e-01
       -4 -1    0    0    0  501 -0.0000000000e+00 +0.0000000000e+00 +9.4568808815e+02 9.4568894092e+02 1.2700000000e+00 0.0000e+00 -1.0000e+00
        4 -1    0    0  501    0 +0.0000000000e+00 -0.0000000000e+00 -6.6993084479e+01 6.7005121208e+01 1.2700000000e+00 0.0000e+00 1.0000e+00
  1000101  2    1    2    0    0 -2.0911330388e+02 +4.1847969108e+01 +3.4432444110e+02 4.2389738077e+02 1.2510012911e+02 1.5974e+02 0.0000e+00
 -1000101  2    1    2    0    0 +2.0911330388e+02 -4.1847969108e+01 +5.3437056257e+02 5.8879668136e+02 1.2509998983e+02 5.8758e+02 0.0000e+00
       11  1    3    3    0    0 -1.5091071651e-01 -6.3184803075e-02 +2.9563389980e-01 3.3788463642e-01 5.1100000000e-04 0.0000e+00 1.0000e+00
      255  1    3    3    0    0 -2.0896239316e+02 +4.1911153911e+01 +3.4402880720e+02 4.2355949613e+02 1.2500000000e+02 0.0000e+00 0.0000e+00
      -11  1    4    4    0    0 -2.6266891317e-02 -1.6495605522e-02 +7.4020271471e-02 8.0257811401e-02 5.1100000000e-04 0.0000e+00 -1.0000e+00
      255  1    4    4    0    0 +2.0913957077e+02 -4.1831473503e+01 +5.3429654230e+02 5.8871642355e+02 1.2500000000e+02 0.0000e+00 0.0000e+00
<mgrwt>
<rscale>  0 0.50343257E+03</rscale>
<asrwt>0</asrwt>
<pdfrwt beam="1">  1        4 0.10307620E-01 0.50343257E+03</pdfrwt>
<pdfrwt beam="2">  1       -4 0.14549147E+00 0.50343257E+03</pdfrwt>
<totfact> 0.47766490E+01</totfact>
</mgrwt>
</event>
<event>
 8      1 +1.6198320e-01 5.41231900e+02 7.81860800e-03 1.00354400e-01
        2 -1    0    0  501    0 +0.0000000000e+00 +0.0000000000e+00 +8.0606097567e+02 8.0606097567e+02 2.5500000000e-03 0.0000e+00 1.0000e+00
       -2 -1    0    0    0  501 -0.0000000000e+00 -0.0000000000e+00 -9.0852920135e+01 9.0852920171e+01 2.5500000000e-03 0.0000e+00 -1.0000e+00
  1000101  2    1    2    0    0 -3.7138731212e+01 +8.7288732220e+01 +7.2287537179e+02 7.3972793654e+02 1.2509999530e+02 1.7012e+02 0.0000e+00
 -1000101  2    1    2    0    0 +3.7138731212e+01 -8.7288732220e+01 -7.6673162581e+00 1.5718595931e+02 1.2510007968e+02 9.1474e+01 0.0000e+00
       11  1    3    3    0    0 -7.5231538725e-02 +1.2551947830e-01 +1.1513244817e+00 1.1605874578e+00 5.1100000000e-04 0.0000e+00 1.0000e+00
      255  1    3    3    0    0 -3.7063499673e+01 +8.7163212742e+01 +7.2172404731e+02 7.3856734908e+02 1.2500000000e+02 0.0000e+00 0.0000e+00
      -11  1    4    4    0    0 +1.2551036913e-01 -1.3570704706e-01 -1.0336266349e-02 1.8513874501e-01 5.1100000000e-04 0.0000e+00 -1.0000e+00
      255  1    4    4    0    0 +3.7013220843e+01 -8.7153025173e+01 -7.6569799917e+00 1.5700082056e+02 1.2500000000e+02 0.0000e+00 0.0000e+00
<mgrwt>
<rscale>  0 0.54123190E+03</rscale>
<asrwt>0</asrwt>
<pdfrwt beam="1">  1        2 0.12400938E+00 0.54123190E+03</pdfrwt>
<pdfrwt beam="2">  1       -2 0.13977372E-01 0.54123190E+03</pdfrwt>
<totfact> 0.13514524E+03</totfact>
</mgrwt>
</event>
<event>
 8      1 +1.6198320e-01 2.82637800e+02 7.81860800e-03 1.09425700e-01
       -2 -1    0    0    0  501 -0.0000000000e+00 +0.0000000000e+00 +1.0351515087e+03 1.0351515087e+03 2.5500000000e-03 0.0000e+00 1.0000e+00
        2 -1    0    0  501    0 +0.0000000000e+00 -0.0000000000e+00 -1.9292857350e+01 1.9292857519e+01 2.5500000000e-03 0.0000e+00 -1.0000e+00
  1000101  2    1    2    0    0 -5.5008246340e+01 -3.1931395675e+01 +4.4601531062e+02 4.6757388003e+02 1.2510057866e+02 2.3786e+02 0.0000e+00
 -1000101  2    1    2    0    0 +5.5008246340e+01 +3.1931395675e+01 +5.6984334073e+02 5.8687048620e+02 1.2510001358e+02 1.0033e+02 0.0000e+00
       11  1    3    3    0    0 -1.0846368451e-01 -3.0036421271e-02 +7.1324238294e-01 7.2206752829e-01 5.1100000000e-04 0.0000e+00 1.0000e+00
      255  1    3    3    0    0 -5.4899782656e+01 -3.1901359254e+01 +4.4530206824e+02 4.6685181250e+02 1.2500000000e+02 0.0000e+00 0.0000e+00
      -11  1    4    4    0    0 +6.1417576515e-02 -7.1449843200e-02 +4.8881854798e-01 4.9781626407e-01 5.1100000000e-04 0.0000e+00 -1.0000e+00
      255  1    4    4    0    0 +5.4946828763e+01 +3.2002845518e+01 +5.6935452219e+02 5.8637266993e+02 1.2500000000e+02 0.0000e+00 0.0000e+00
<mgrwt>
<rscale>  0 0.28263779E+03</rscale>
<asrwt>0</asrwt>
<pdfrwt beam="1">  1        2 0.29681310E-02 0.28263779E+03</pdfrwt>
<pdfrwt beam="2">  1       -2 0.15925413E+00 0.28263779E+03</pdfrwt>
<totfact> 0.86274905E+02</totfact>
</mgrwt>
</event>
<event>
 8      1 +1.6198320e-01 3.34423600e+02 7.81860800e-03 1.06919600e-01
       -2 -1    0    0    0  501 -0.0000000000e+00 +0.0000000000e+00 +3.8947101398e+01 3.8947101481e+01 2.5500000000e-03 0.0000e+00 -1.0000e+00
        2 -1    0    0  501    0 +0.0000000000e+00 -0.0000000000e+00 -7.1789152174e+02 7.1789152175e+02 2.5500000000e-03 0.0000e+00 1.0000e+00
  1000101  2    1    2    0    0 -1.1205770922e+00 -3.1910776054e+01 -5.7994121284e+02 5.9413916216e+02 1.2509988143e+02 1.0389e+02 0.0000e+00
 -1000101  2    1    2    0    0 +1.1205770922e+00 +3.1910776054e+01 -9.9003207501e+01 1.6269946107e+02 1.2509966513e+02 3.5962e+01 0.0000e+00
       11  1    3    3    0    0 -5.7971638245e-02 -5.5358246602e-03 -8.0914432150e-01 8.1123741921e-01 5.1100000000e-04 0.0000e+00 1.0000e+00
      255  1    3    3    0    0 -1.0626054539e+00 -3.1905240229e+01 -5.7913206852e+02 5.9332792474e+02 1.2500000000e+02 0.0000e+00 0.0000e+00
      -11  1    4    4    0    0 -2.4076315361e-02 +9.7391250798e-02 -8.4498340062e-03 1.0067961814e-01 5.1100000000e-04 0.0000e+00 -1.0000e+00
      255  1    4    4    0    0 +1.1446534075e+00 +3.1813384803e+01 -9.8994757667e+01 1.6259878145e+02 1.2500000000e+02 0.0000e+00 0.0000e+00
<mgrwt>
<rscale>  0 0.33442365E+03</rscale>
<asrwt>0</asrwt>
<pdfrwt beam="1">  1        2 0.11044484E+00 0.33442365E+03</pdfrwt>
<pdfrwt beam="2">  1       -2 0.59918623E-02 0.33442365E+03</pdfrwt>
<totfact> 0.60498853E+03</totfact>
</mgrwt>
</event>
<event>
 8      1 +1.6198320e-01 3.32143300e+02 7.81860800e-03 1.07019200e-01
       -1 -1    0    0    0  501 -0.0000000000e+00 +0.0000000000e+00 +2.5202770106e+01 2.5202770610e+01 5.0400000000e-03 0.0000e+00 -1.0000e+00
        1 -1    0    0  501    0 +0.0000000000e+00 -0.0000000000e+00 -1.0943161201e+03 1.0943161201e+03 5.0400000000e-03 0.0000e+00 1.0000e+00
  1000101  2    1    2    0    0 +1.7311204498e+01 +6.2160230068e+01 -8.3159411578e+02 8.4342303109e+02 1.2510021569e+02 3.3175e+02 0.0000e+00
 -1000101  2    1    2    0    0 -1.7311204498e+01 -6.2160230068e+01 -2.3751923417e+02 2.7609585959e+02 1.2509982046e+02 1.5065e+02 0.0000e+00
       11  1    3    3    0    0 -2.4466185174e-02 -4.9998169871e-02 -5.6628252885e-01 5.6901192853e-01 5.1100000000e-04 0.0000e+00 1.0000e+00
      255  1    3    3    0    0 +1.7335670683e+01 +6.2210228238e+01 -8.3102783325e+02 8.4285401916e+02 1.2500000000e+02 0.0000e+00 0.0000e+00
      -11  1    4    4    0    0 +5.3079939574e-04 -9.4640289289e-02 -3.9602104128e-01 4.0717317245e-01 5.1100000000e-04 0.0000e+00 -1.0000e+00
      255  1    4    4    0    0 -1.7311735298e+01 -6.2065589779e+01 -2.3712321312e+02 2.7568868641e+02 1.2500000000e+02 0.0000e+00 0.0000e+00
<mgrwt>
<rscale>  0 0.33214333E+03</rscale>
<asrwt>0</asrwt>
<pdfrwt beam="1">  1        1 0.16835629E+00 0.33214333E+03</pdfrwt>
<pdfrwt beam="2">  1       -1 0.38773501E-02 0.33214333E+03</pdfrwt>
<totfact> 0.35177748E+03</totfact>
</mgrwt>
</event>
<event>
 8      1 +1.6198320e-01 3.34025500e+02 7.81860800e-03 1.06936900e-01
        3 -1    0    0  501    0 +0.0000000000e+00 +0.0000000000e+00 +7.4306632348e+02 7.4306633034e+02 1.0100000000e-01 0.0000e+00 1.0000e+00
       -3 -1    0    0    0  501 -0.0000000000e+00 -0.0000000000e+00 -3.7537974935e+01 3.7538110811e+01 1.0100000000e-01 0.0000e+00 -1.0000e+00
  1000101  2    1    2    0    0 -3.8946339952e+01 +3.0097678252e+01 +1.2117427335e+02 1.8098591204e+02 1.2509999281e+02 5.8671e+01 0.0000e+00
 -1000101  2    1    2    0    0 +3.8946339952e+01 -3.0097678252e+01 +5.8435407519e+02 5.9961852911e+02 1.2509999055e+02 2.2032e+01 0.0000e+00
       11  1    3    3    0    0 -3.0763044298e-02 +1.2422995726e-01 +1.4556719194e-01 1.9382857289e-01 5.1100000000e-04 0.0000e+00 1.0000e+00
      255  1    3    3    0    0 -3.8915576908e+01 +2.9973448294e+01 +1.2102870616e+02 1.8079208347e+02 1.2500000000e+02 0.0000e+00 0.0000e+00
      -11  1    4    4    0    0 -5.0138134413e-02 +4.4491302064e-02 +2.3446490012e-01 2.4385930163e-01 5.1100000000e-04 0.0000e+00 -1.0000e+00
      255  1    4    4    0    0 +3.8996478087e+01 -3.0142169554e+01 +5.8411961029e+02 5.9937466981e+02 1.2500000000e+02 0.0000e+00 0.0000e+00
<mgrwt>
<rscale>  0 0.33402551E+03</rscale>
<asrwt>0</asrwt>
<pdfrwt beam="1">  1        3 0.11431790E+00 0.33402551E+03</pdfrwt>
<pdfrwt beam="2">  1       -3 0.57750842E-02 0.33402551E+03</pdfrwt>
<totfact> 0.30946841E+02</totfact>
</mgrwt>
</event>
<event>
 8      1 +1.6198320e-01 3.03110600e+02 7.81860800e-03 1.08369600e-01
       -3 -1    0    0    0  501 -0.0000000000e+00 +0.0000000000e+00 +1.8338673999e+02 1.8338676780e+02 1.0100000000e-01 0.0000e+00 1.0000e+00
        3 -1    0    0  501    0 +0.0000000000e+00 -0.0000000000e+00 -1.2524895942e+02 1.2524900014e+02 1.0100000000e-01 0.0000e+00 -1.0000e+00
  1000101  2    1    2    0    0 +6.8442075322e+00 -8.1865266775e+01 +4.7538923688e+00 1.4973768218e+02 1.2509999556e+02 8.3290e+01 0.0000e+00
 -1000101  2    1    2    0    0 -6.8442075322e+00 +8.1865266775e+01 +5.3383888201e+01 1.5889808576e+02 1.2509994828e+02 1.2946e+02 0.0000e+00
       11  1    3    3    0    0 -8.1724648126e-03 +4.7357465552e-02 +3.2986154954e-02 5.8291219446e-02 5.1100000000e-04 0.0000e+00 1.0000e+00
      255  1    3    3    0    0 +6.8523799970e+00 -8.1912624241e+01 +4.7209062139e+00 1.4967939096e+02 1.2500000000e+02 0.0000e+00 0.0000e+00
      -11  1    4    4    0    0 +2.6275457127e-02 +1.4510361619e-01 -1.2716907001e-02 1.4801162091e-01 5.1100000000e-04 0.0000e+00 -1.0000e+00
      255  1    4    4    0    0 -6.8704829894e+00 +8.1720163159e+01 +5.3396605108e+01 1.5875007414e+02 1.2500000000e+02 0.0000e+00 0.0000e+00
<mgrwt>
<rscale>  0 0.30311060E+03</rscale>
<asrwt>0</asrwt>
<pdfrwt beam="1">  1        3 0.19269076E-01 0.30311060E+03</pdfrwt>
<pdfrwt beam="2">  1       -3 0.28213350E-01 0.30311060E+03</pdfrwt>
<totfact> 0.74004162E+02</totfact>
</mgrwt>
</event>
<event>
 8      1 +1.6198320e-01 2.78976700e+02 7.81860800e-03 1.09624900e-01
        2 -1    0    0  501    0 +0.0000000000e+00 +0.0000000000e+00 +4.3658136440e+02 4.3658136440e+02 2.5500000000e-03 0.0000e+00 1.0000e+00
       -2 -1    0    0    0  501 -0.0000000000e+00 -0.0000000000e+00 -4.4566711190e+01 4.4566711262e+01 2.5500000000e-03 0.0000e+00 -1.0000e+00
  1000101  2    1    2    0    0 -4.8026781890e+00 +5.6804482081e+01 +2.3671736835e+02 2.7374246867e+02 1.2510000709e+02 1.8995e+02 0.0000e+00
 -1000101  2    1    2    0    0 +4.8026781890e+00 -5.6804482081e+01 +1.5529728486e+02 2.0740560700e+02 1.2510005686e+02 9.9350e+00 0.0000e+00
       11  1    3    3    0    0 -2.5389897874e-02 -4.0027068502e-02 +1.3146313163e-02 4.9192477053e-02 5.1100000000e-04 0.0000e+00 1.0000e+00
      255  1    3    3    0    0 -4.7772882911e+00 +5.6844509149e+01 +2.3670422204e+02 2.7369327619e+02 1.2500000000e+02 0.0000e+00 0.0000e+00
      -11  1    4    4    0    0 -6.1035748525e-02 +3.3948658262e-02 +4.3938575565e-02 8.2515050384e-02 5.1100000000e-04 0.0000e+00 -1.0000e+00
      255  1    4    4    0    0 +4.8637139375e+00 -5.6838430739e+01 +1.5525334628e+02 2.0732309195e+02 1.2500000000e+02 0.0000e+00 0.0000e+00
<mgrwt>
<rscale>  0 0.27897667E+03</rscale>
<asrwt>0</asrwt>
<pdfrwt beam="1">  1        2 0.67166367E-01 0.27897667E+03</pdfrwt>
<pdfrwt beam="2">  1       -2 0.68564168E-02 0.27897667E+03</pdfrwt>
<totfact> 0.86743137E+03</totfact>
</mgrwt>
</event>
<event>
 8      1 +1.6198320e-01 2.94689400e+02 7.81860800e-03 1.08792600e-01
        2 -1    0    0  501    0 +0.0000000000e+00 +0.0000000000e+00 +2.3079236061e+03 2.3079236061e+03 2.5500000000e-03 0.0000e+00 1.0000e+00
       -2 -1    0    0    0  501 -0.0000000000e+00 -0.0000000000e+00 -9.4069242819e+00 9.4069246275e+00 2.5500000000e-03 0.0000e+00 -1.0000e+00
  1000101  2    1    2    0    0 -4.1133073676e+01 +5.7281586716e+01 +1.4085611290e+03 1.4158628360e+03 1.2509998427e+02 8.0931e+01 0.0000e+00
 -1000101  2    1    2    0    0 +4.1133073676e+01 -5.7281586716e+01 +8.8995555274e+02 9.0146769474e+02 1.2509999551e+02 5.9428e+02 0.0000e+00
       11  1    3    3    0    0 -5.8253232700e-02 -2.8558824658e-02 +1.5539482738e+00 1.5553020749e+00 5.1100000000e-04 0.0000e+00 1.0000e+00
      255  1    3    3    0    0 -4.1074820443e+01 +5.7310145540e+01 +1.4070071808e+03 1.4143075339e+03 1.2500000000e+02 0.0000e+00 0.0000e+00
      -11  1    4    4    0    0 +8.3527721245e-02 -1.3273372675e-01 +7.1612009177e-01 7.3309165143e-01 5.1100000000e-04 0.0000e+00 -1.0000e+00
      255  1    4    4    0    0 +4.1049545955e+01 -5.7148852989e+01 +8.8923943265e+02 9.0073460309e+02 1.2500000000e+02 0.0000e+00 0.0000e+00
<mgrwt>
<rscale>  0 0.29468942E+03</rscale>
<asrwt>0</asrwt>
<pdfrwt beam="1">  1        2 0.35506539E+00 0.29468942E+03</pdfrwt>
<pdfrwt beam="2">  1       -2 0.14472182E-02 0.29468942E+03</pdfrwt>
<totfact> 0.63390334E+03</totfact>
</mgrwt>
</event>
<event>
 8      1 +1.6198320e-01 1.03238000e+03 7.81860800e-03 9.27372700e-02
        2 -1    0    0  501    0 +0.0000000000e+00 +0.0000000000e+00 +1.0426264405e+03 1.0426264405e+03 2.5500000000e-03 0.0000e+00 1.0000e+00
       -2 -1    0    0    0  501 -0.0000000000e+00 -0.0000000000e+00 -2.5555861829e+02 2.5555861830e+02 2.5500000000e-03 0.0000e+00 -1.0000e+00
  1000101  2    1    2    0    0 +2.3807372119e+02 +7.6473778554e+00 -1.6041551056e+02 3.1324228954e+02 1.2510002724e+02 4.4762e+01 0.0000e+00
 -1000101  2    1    2    0    0 -2.3807372119e+02 -7.6473778554e+00 +9.4748333275e+02 9.8494276925e+02 1.2510001495e+02 5.6923e+01 0.0000e+00
       11  1    3    3    0    0 +6.2869698117e-02 -3.4609224636e-02 +2.2666252533e-02 7.5262324552e-02 5.1100000000e-04 0.0000e+00 1.0000e+00
      255  1    3    3    0    0 +2.3801085149e+02 +7.6819870801e+00 -1.6043817682e+02 3.1316702721e+02 1.2500000000e+02 0.0000e+00 0.0000e+00
      -11  1    4    4    0    0 -8.2209505277e-02 -2.3153716196e-02 +1.1420026627e-01 1.4260595804e-01 5.1100000000e-04 0.0000e+00 -1.0000e+00
      255  1    4    4    0    0 -2.3799151168e+02 -7.6242241392e+00 +9.4736913248e+02 9.8480016329e+02 1.2500000000e+02 0.0000e+00 0.0000e+00
<mgrwt>
<rscale>  0 0.10323801E+04</rscale>
<asrwt>0</asrwt>
<pdfrwt beam="1">  1        2 0.16040407E+00 0.10323801E+04</pdfrwt>
<pdfrwt beam="2">  1       -2 0.39316711E-01 0.10323801E+04</pdfrwt>
<totfact> 0.14412242E+02</totfact>
</mgrwt>
</event>
<event>
 8      1 +1.6198320e-01 3.82324100e+02 7.81860800e-03 1.05007800e-01
       -2 -1    0    0    0  501 -0.0000000000e+00 +0.0000000000e+00 +3.8108986937e+01 3.8108987022e+01 2.5500000000e-03 0.0000e+00 -1.0000e+00
        2 -1    0    0  501    0 +0.0000000000e+00 -0.0000000000e+00 -9.5890596122e+02 9.5890596122e+02 2.5500000000e-03 0.0000e+00 1.0000e+00
  1000101  2    1    2    0    0 +7.2708840426e+01 -5.2059592942e+01 -1.6425666402e+02 2.2500455087e+02 1.2510003814e+02 1.7165e+02 0.0000e+00
 -1000101  2    1    2    0    0 -7.2708840426e+01 +5.2059592942e+01 -7.5654031027e+02 7.7201039738e+02 1.2510010355e+02 6.5588e+01 0.0000e+00
       11  1    3    3    0    0 -5.5573174270e-02 -2.5934292876e-02 -4.2189262160e-02 7.4438969688e-02 5.1100000000e-04 0.0000e+00 1.0000e+00
      255  1    3    3    0    0 +7.2764413601e+01 -5.2033658649e+01 -1.6421447475e+02 2.2493011190e+02 1.2500000000e+02 0.0000e+00 0.0000e+00
      -11  1    4    4    0    0 +2.3287400186e-02 -2.1027741569e-02 -3.5452631654e-02 4.7345740417e-02 5.1100000000e-04 0.0000e+00 -1.0000e+00
      255  1    4    4    0    0 -7.2732127827e+01 +5.2080620684e+01 -7.5650485763e+02 7.7196305164e+02 1.2500000000e+02 0.0000e+00 0.0000e+00
<mgrwt>
<rscale>  0 0.38232413E+03</rscale>
<asrwt>0</asrwt>
<pdfrwt beam="1">  1        2 0.14752398E+00 0.38232413E+03</pdfrwt>
<pdfrwt beam="2">  1       -2 0.58629218E-02 0.38232413E+03</pdfrwt>
<totfact> 0.42911785E+03</totfact>
</mgrwt>
</event>
<event>
 8      1 +1.6198320e-01 2.72885200e+02 7.81860800e-03 1.09964000e-01
        2 -1    0    0  501    0 +0.0000000000e+00 +0.0000000000e+00 +5.7597368333e+02 5.7597368333e+02 2.5500000000e-03 0.0000e+00 1.0000e+00
       -2 -1    0    0    0  501 -0.0000000000e+00 -0.0000000000e+00 -3.2321927645e+01 3.2321927746e+01 2.5500000000e-03 0.0000e+00 -1.0000e+00
  1000101  2    1    2    0    0 -4.7288721246e+01 -3.3996542092e+00 +2.1206408188e+02 2.5073696249e+02 1.2510023473e+02 3.2724e+01 0.0000e+00
 -1000101  2    1    2    0    0 +4.7288721246e+01 +3.3996542092e+00 +3.3158767380e+02 3.5755864859e+02 1.2510004379e+02 6.0796e+01 0.0000e+00
       11  1    3    3    0    0 +1.7275656950e-02 +8.3683288881e-02 +1.3784319502e-01 1.6217998858e-01 5.1100000000e-04 0.0000e+00 1.0000e+00
      255  1    3    3    0    0 -4.7305996903e+01 -3.4833374980e+00 +2.1192623868e+02 2.5057478250e+02 1.2500000000e+02 0.0000e+00 0.0000e+00
      -11  1    4    4    0    0 -5.8362939429e-02 +4.5454739770e-02 +1.7544319201e-01 1.9040205044e-01 5.1100000000e-04 0.0000e+00 -1.0000e+00
      255  1    4    4    0    0 +4.7347084186e+01 +3.3541994694e+00 +3.3141223061e+02 3.5736824654e+02 1.2500000000e+02 0.0000e+00 0.0000e+00
<mgrwt>
<rscale>  0 0.27288518E+03</rscale>
<asrwt>0</asrwt>
<pdfrwt beam="1">  1        2 0.88611340E-01 0.27288518E+03</pdfrwt>
<pdfrwt beam="2">  1       -2 0.49726040E-02 0.27288518E+03</pdfrwt>
<totfact> 0.10393915E+04</totfact>
</mgrwt>
</event>
<event>
 8      1 +1.6198320e-01 2.68357000e+02 7.81860800e-03 1.10222400e-01
        4 -1    0    0  501    0 +0.0000000000e+00 +0.0000000000e+00 +2.1494728481e+02 2.1495103663e+02 1.2700000000e+00 0.0000e+00 1.0000e+00
       -4 -1    0    0    0  501 -0.0000000000e+00 -0.0000000000e+00 -8.3750184527e+01 8.3759813206e+01 1.2700000000e+00 0.0000e+00 -1.0000e+00
  1000101  2    1    2    0    0 +4.3128535065e+01 -1.5638564007e+01 +8.3171078562e+01 1.5707346155e+02 1.2509999518e+02 3.1597e+01 0.0000e+00
 -1000101  2    1    2    0    0 -4.3128535065e+01 +1.5638564007e+01 +4.8026021721e+01 1.4163738828e+02 1.2510002308e+02 5.2509e+01 0.0000e+00
       11  1    3    3    0    0 +9.5327015689e-02 -6.6917978101e-02 +1.5733731540e-01 1.9575634767e-01 5.1100000000e-04 0.0000e+00 1.0000e+00
      255  1    3    3    0    0 +4.3033208050e+01 -1.5571646028e+01 +8.3013741246e+01 1.5687770521e+02 1.2500000000e+02 0.0000e+00 0.0000e+00
      -11  1    4    4    0    0 -9.0831556650e-03 +1.0915041601e-01 +3.4741920168e-02 1.1490682822e-01 5.1100000000e-04 0.0000e+00 -1.0000e+00
      255  1    4    4    0    0 -4.3119451910e+01 +1.5529413591e+01 +4.7991279801e+01 1.4152248145e+02 1.2500000000e+02 0.0000e+00 0.0000e+00
<mgrwt>
<rscale>  0 0.26835702E+03</rscale>
<asrwt>0</asrwt>
<pdfrwt beam="1">  1        4 0.33069841E-01 0.26835702E+03</pdfrwt>
<pdfrwt beam="2">  1       -4 0.12885673E-01 0.26835702E+03</pdfrwt>
<totfact> 0.81026354E+02</totfact>
</mgrwt>
</event>
<event>
 8      1 +1.6198320e-01 2.86723900e+02 7.81860800e-03 1.09207200e-01
       -2 -1    0    0    0  501 -0.0000000000e+00 +0.0000000000e+00 +2.3832482718e+01 2.3832482855e+01 2.5500000000e-03 0.0000e+00 -1.0000e+00
        2 -1    0    0  501    0 +0.0000000000e+00 -0.0000000000e+00 -8.6237950937e+02 8.6237950937e+02 2.5500000000e-03 0.0000e+00 1.0000e+00
  1000101  2    1    2    0    0 -3.5074313750e+01 -1.0178227695e+01 -2.3462527668e+02 2.6838896025e+02 1.2509919955e+02 1.2226e+02 0.0000e+00
 -1000101  2    1    2    0    0 +3.5074313750e+01 +1.0178227695e+01 -6.0392174998e+02 6.1782303197e+02 1.2510001974e+02 4.5975e+01 0.0000e+00
       11  1    3    3    0    0 -4.5093357934e-02 +6.3387611488e-02 -3.2135675712e-01 3.3063851361e-01 5.1100000000e-04 0.0000e+00 1.0000e+00
      255  1    3    3    0    0 -3.5029220392e+01 -1.0241615307e+01 -2.3430391992e+02 2.6805832174e+02 1.2500000000e+02 0.0000e+00 0.0000e+00
      -11  1    4    4    0    0 +1.0032129551e-01 -4.9523406551e-02 -3.5826922667e-01 3.7533189317e-01 5.1100000000e-04 0.0000e+00 -1.0000e+00
      255  1    4    4    0    0 +3.4973992454e+01 +1.0227751102e+01 -6.0356348075e+02 6.1744770008e+02 1.2500000000e+02 0.0000e+00 0.0000e+00
<mgrwt>
<rscale>  0 0.28672387E+03</rscale>
<asrwt>0</asrwt>
<pdfrwt beam="1">  1        2 0.13267375E+00 0.28672387E+03</pdfrwt>
<pdfrwt beam="2">  1       -2 0.36665365E-02 0.28672387E+03</pdfrwt>
<totfact> 0.10069212E+04</totfact>
</mgrwt>
</event>
<event>
 8      1 +1.6198320e-01 5.22223900e+02 7.81860800e-03 1.00813600e-01
       -1 -1    0    0    0  501 -0.0000000000e+00 +0.0000000000e+00 +4.9634531884e+01 4.9634532140e+01 5.0400000000e-03 0.0000e+00 -1.0000e+00
        1 -1    0    0  501    0 +0.0000000000e+00 -0.0000000000e+00 -1.3736296105e+03 1.3736296105e+03 5.0400000000e-03 0.0000e+00 1.0000e+00
  1000101  2    1    2    0    0 -2.1367410587e+02 -5.6372589844e+01 -4.9633211318e+02 5.5752140711e+02 1.2510020147e+02 4.1876e+01 0.0000e+00
 -1000101  2    1    2    0    0 +2.1367410587e+02 +5.6372589844e+01 -8.2766296542e+02 8.6574273553e+02 1.2509998953e+02 2.3871e+01 0.0000e+00
       11  1    3    3    0    0 -2.7243617383e-01 -1.3811236929e-01 -7.1050244909e-01 7.7337603185e-01 5.1100000000e-04 0.0000e+00 1.0000e+00
      255  1    3    3    0    0 -2.1340166970e+02 -5.6234477475e+01 -4.9562161073e+02 5.5674803108e+02 1.2500000000e+02 0.0000e+00 0.0000e+00
      -11  1    4    4    0    0 +1.6088557470e-01 -6.0116117323e-05 -9.1027166686e-01 9.2438030072e-01 5.1100000000e-04 0.0000e+00 -1.0000e+00
      255  1    4    4    0    0 +2.1351322029e+02 +5.6372649960e+01 -8.2675269376e+02 8.6481835523e+02 1.2500000000e+02 0.0000e+00 0.0000e+00
<mgrwt>
<rscale>  0 0.52222395E+03</rscale>
<asrwt>0</asrwt>
<pdfrwt beam="1">  1        1 0.21132760E+00 0.52222395E+03</pdfrwt>
<pdfrwt beam="2">  1       -1 0.76360829E-02 0.52222395E+03</pdfrwt>
<totfact> 0.79277686E+02</totfact>
</mgrwt>
</event>
<event>
 8      1 +1.6198320e-01 3.08829900e+02 7.81860800e-03 1.08090800e-01
       -3 -1    0    0    0  501 -0.0000000000e+00 +0.0000000000e+00 +1.2663057920e+02 1.2663061948e+02 1.0100000000e-01 0.0000e+00 -1.0000e+00
        3 -1    0    0  501    0 +0.0000000000e+00 -0.0000000000e+00 -1.8829550836e+02 1.8829553545e+02 1.0100000000e-01 0.0000e+00 1.0000e+00
  1000101  2    1    2    0    0 +3.3361859371e+01 +5.9954120650e+01 +2.9379368872e+01 1.4567314701e+02 1.2509999281e+02 3.4691e+00 0.0000e+00
 -1000101  2    1    2    0    0 -3.3361859371e+01 -5.9954120650e+01 -9.1044298028e+01 1.6925300792e+02 1.2509998499e+02 5.4403e+01 0.0000e+00
       11  1    3    3    0    0 +4.9466153051e-02 +1.4323578049e-01 -1.7633168677e-02 1.5256008282e-01 5.1100000000e-04 0.0000e+00 1.0000e+00
      255  1    3    3    0    0 +3.3312393218e+01 +5.9810884869e+01 +2.9397002041e+01 1.4552058693e+02 1.2500000000e+02 0.0000e+00 0.0000e+00
      -11  1    4    4    0    0 -5.3538542274e-02 -1.4480236798e-01 -4.8563996534e-02 1.6184197281e-01 5.1100000000e-04 0.0000e+00 -1.0000e+00
      255  1    4    4    0    0 -3.3308320829e+01 -5.9809318282e+01 -9.0995734031e+01 1.6909116595e+02 1.2500000000e+02 0.0000e+00 0.0000e+00
<mgrwt>
<rscale>  0 0.30882992E+03</rscale>
<asrwt>0</asrwt>
<pdfrwt beam="1">  1        3 0.28968545E-01 0.30882992E+03</pdfrwt>
<pdfrwt beam="2">  1       -3 0.19481633E-01 0.30882992E+03</pdfrwt>
<totfact> 0.69223139E+02</totfact>
</mgrwt>
</event>
<event>
 8      1 +1.6198320e-01 4.21025200e+02 7.81860800e-03 1.03673300e-01
       -2 -1    0    0    0  501 -0.0000000000e+00 +0.0000000000e+00 +7.2158744264e+02 7.2158744265e+02 2.5500000000e-03 0.0000e+00 -1.0000e+00
        2 -1    0    0  501    0 +0.0000000000e+00 -0.0000000000e+00 -6.1413972014e+01 6.1413972067e+01 2.5500000000e-03 0.0000e+00 1.0000e+00
  1000101  2    1    2    0    0 -3.4447467114e+01 -1.2197173029e+02 +1.2131553121e+02 2.1547902428e+02 1.2510004321e+02 1.3722e+02 0.0000e+00
 -1000101  2    1    2    0    0 +3.4447467114e+01 +1.2197173029e+02 +5.3885793942e+02 5.6752239043e+02 1.2510017500e+02 8.8485e+01 0.0000e+00
       11  1    3    3    0    0 -7.6573503710e-02 -1.6661963470e-01 +4.1591803651e-02 1.8803122983e-01 5.1100000000e-04 0.0000e+00 1.0000e+00
      255  1    3    3    0    0 -3.4370893610e+01 -1.2180511066e+02 +1.2127393941e+02 2.1529099305e+02 1.2500000000e+02 0.0000e+00 0.0000e+00
      -11  1    4    4    0    0 +1.0521153890e-01 +2.0626985492e-01 +6.5757274290e-01 6.9715055354e-01 5.1100000000e-04 0.0000e+00 -1.0000e+00
      255  1    4    4    0    0 +3.4342255575e+01 +1.2176546044e+02 +5.3820036668e+02 5.6682523988e+02 1.2500000000e+02 0.0000e+00 0.0000e+00
<mgrwt>
<rscale>  0 0.42102518E+03</rscale>
<asrwt>0</asrwt>
<pdfrwt beam="1">  1        2 0.94483037E-02 0.42102518E+03</pdfrwt>
<pdfrwt beam="2">  1       -2 0.11101345E+00 0.42102518E+03</pdfrwt>
<totfact> 0.46337287E+02</totfact>
</mgrwt>
</event>
<event>
 8      1 +1.6198320e-01 2.85301300e+02 7.81860800e-03 1.09282800e-01
       -3 -1    0    0    0  501 -0.0000000000e+00 +0.0000000000e+00 +1.4259742645e+02 1.4259746222e+02 1.0100000000e-01 0.0000e+00 1.0000e+00
        3 -1    0    0  501    0 +0.0000000000e+00 -0.0000000000e+00 -1.4270382495e+02 1.4270386069e+02 1.0100000000e-01 0.0000e+00 -1.0000e+00
  1000101  2    1    2    0    0 +2.7825638218e+01 +3.9315335170e+01 -4.8831090276e+01 1.4266906463e+02 1.2510005957e+02 1.1881e+02 0.0000e+00
 -1000101  2    1    2    0    0 -2.7825638218e+01 -3.9315335170e+01 +4.8724691776e+01 1.4263225827e+02 1.2509957550e+02 3.7163e+00 0.0000e+00
       11  1    3    3    0    0 +8.5961951144e-02 +9.1126104840e-02 -1.1160838548e-01 1.6777996560e-01 5.1100000000e-04 0.0000e+00 1.0000e+00
      255  1    3    3    0    0 +2.7739676267e+01 +3.9224209065e+01 -4.8719481890e+01 1.4250128467e+02 1.2500000000e+02 0.0000e+00 0.0000e+00
      -11  1    4    4    0    0 -1.0988965684e-02 -1.9644326079e-02 -6.7999482045e-02 7.1629935040e-02 5.1100000000e-04 0.0000e+00 -1.0000e+00
      255  1    4    4    0    0 -2.7814649252e+01 -3.9295690844e+01 +4.8792691258e+01 1.4256062834e+02 1.2500000000e+02 0.0000e+00 0.0000e+00
<mgrwt>
<rscale>  0 0.28530130E+03</rscale>
<asrwt>0</asrwt>
<pdfrwt beam="1">  1        3 0.21954440E-01 0.28530130E+03</pdfrwt>
<pdfrwt beam="2">  1       -3 0.21938071E-01 0.28530130E+03</pdfrwt>
<totfact> 0.92274218E+02</totfact>
</mgrwt>
</event>
<event>
 8      1 +1.6198320e-01 4.21270700e+02 7.81860800e-03 1.03665400e-01
        2 -1    0    0  501    0 +0.0000000000e+00 +0.0000000000e+00 +2.3383866683e+02 2.3383866684e+02 2.5500000000e-03 0.0000e+00 1.0000e+00
       -2 -1    0    0    0  501 -0.0000000000e+00 -0.0000000000e+00 -1.8973447391e+02 1.8973447393e+02 2.5500000000e-03 0.0000e+00 -1.0000e+00
  1000101  2    1    2    0    0 -8.8495335264e+01 -9.3395874100e+01 +1.3294105594e+02 2.2333275747e+02 1.2509989026e+02 4.9778e+01 0.0000e+00
 -1000101  2    1    2    0    0 +8.8495335264e+01 +9.3395874100e+01 -8.8836863024e+01 2.0024038329e+02 1.2509999683e+02 5.4118e+01 0.0000e+00
       11  1    3    3    0    0 +3.9161599867e-02 -8.2171104456e-02 +9.3012055354e-02 1.3014309384e-01 5.1100000000e-04 0.0000e+00 1.0000e+00
      255  1    3    3    0    0 -8.8534496864e+01 -9.3313702996e+01 +1.3284804389e+02 2.2320261438e+02 1.2500000000e+02 0.0000e+00 0.0000e+00
      -11  1    4    4    0    0 +3.0842086646e-02 +5.6039924209e-02 -1.6182687544e-01 1.7401122421e-01 5.1100000000e-04 0.0000e+00 -1.0000e+00
      255  1    4    4    0    0 +8.8464493178e+01 +9.3339834176e+01 -8.8675036148e+01 2.0006637207e+02 1.2500000000e+02 0.0000e+00 0.0000e+00
<mgrwt>
<rscale>  0 0.42127073E+03</rscale>
<asrwt>0</asrwt>
<pdfrwt beam="1">  1        2 0.35975179E-01 0.42127073E+03</pdfrwt>
<pdfrwt beam="2">  1       -2 0.29189919E-01 0.42127073E+03</pdfrwt>
<totfact> 0.15541322E+03</totfact>
</mgrwt>
</event>
<event>
 8      1 +1.6198320e-01 3.20416000e+02 7.81860800e-03 1.07545800e-01
        3 -1    0    0  501    0 +0.0000000000e+00 +0.0000000000e+00 +7.7994892378e+01 7.7994957774e+01 1.0100000000e-01 0.0000e+00 -1.0000e+00
       -3 -1    0    0    0  501 -0.0000000000e+00 -0.0000000000e+00 -3.2908040618e+02 3.2908042168e+02 1.0100000000e-01 0.0000e+00 1.0000e+00
  1000101  2    1    2    0    0 -4.5632515524e+01 -8.8675085893e+01 -1.1483619806e+02 1.9693386109e+02 1.2509994375e+02 8.5192e+01 0.0000e+00
 -1000101  2    1    2    0    0 +4.5632515524e+01 +8.8675085893e+01 -1.3624931573e+02 2.1014151836e+02 1.2509989756e+02 1.7986e+02 0.0000e+00
       11  1    3    3    0    0 -2.8679784497e-02 -6.0481705611e-02 -2.0833910659e-01 2.1882872574e-01 5.1100000000e-04 0.0000e+00 1.0000e+00
      255  1    3    3    0    0 -4.5603835739e+01 -8.8614604187e+01 -1.1462785896e+02 1.9671503237e+02 1.2500000000e+02 0.0000e+00 0.0000e+00
      -11  1    4    4    0    0 +4.5255908149e-02 +1.5012274591e-01 -4.8664584207e-02 1.6417502532e-01 5.1100000000e-04 0.0000e+00 -1.0000e+00
      255  1    4    4    0    0 +4.5587259616e+01 +8.8524963147e+01 -1.3620065115e+02 2.0997734333e+02 1.2500000000e+02 0.0000e+00 0.0000e+00
<mgrwt>
<rscale>  0 0.32041603E+03</rscale>
<asrwt>0</asrwt>
<pdfrwt beam="1">  1        3 0.11999221E-01 0.32041603E+03</pdfrwt>
<pdfrwt beam="2">  1       -3 0.50627760E-01 0.32041603E+03</pdfrwt>
<totfact> 0.54506413E+02</totfact>
</mgrwt>
</event>
<event>
 8      1 +1.6198320e-01 4.91160800e+02 7.81860800e-03 1.01611200e-01
       -2 -1    0    0    0  501 -0.0000000000e+00 +0.0000000000e+00 +3.1025160767e+02 3.1025160768e+02 2.5500000000e-03 0.0000e+00 -1.0000e+00
        2 -1    0    0  501    0 +0.0000000000e+00 -0.0000000000e+00 -1.9438972868e+02 1.9438972870e+02 2.5500000000e-03 0.0000e+00 1.0000e+00
  1000101  2    1    2    0    0 +2.6230798277e+01 -6.2844052795e+01 +2.6347750187e+02 2.9951259927e+02 1.2509985363e+02 3.3077e+00 0.0000e+00
 -1000101  2    1    2    0    0 -2.6230798277e+01 +6.2844052795e+01 -1.4761562288e+02 2.0512873711e+02 1.2509994773e+02 9.3802e+01 0.0000e+00
       11  1    3    3    0    0 +9.4302334186e-02 -1.2903714444e-01 +3.5482273948e-01 3.8915671966e-01 5.1100000000e-04 0.0000e+00 1.0000e+00
      255  1    3    3    0    0 +2.6136495942e+01 -6.2715015651e+01 +2.6312267913e+02 2.9912344255e+02 1.2500000000e+02 0.0000e+00 0.0000e+00
      -11  1    4    4    0    0 -4.2322953603e-02 +7.9133312835e-02 +1.1620475886e-03 8.9749234413e-02 5.1100000000e-04 0.0000e+00 -1.0000e+00
      255  1    4    4    0    0 -2.6188475323e+01 +6.2764919483e+01 -1.4761678493e+02 2.0503898788e+02 1.2500000000e+02 0.0000e+00 0.0000e+00
<mgrwt>
<rscale>  0 0.49116077E+03</rscale>
<asrwt>0</asrwt>
<pdfrwt beam="1">  1        2 0.29906112E-01 0.49116077E+03</pdfrwt>
<pdfrwt beam="2">  1       -2 0.47731017E-01 0.49116077E+03</pdfrwt>
<totfact> 0.74637593E+02</totfact>
</mgrwt>
</event>
<event>
 8      1 +1.6198320e-01 3.83650700e+02 7.81860800e-03 1.04959300e-01
       -2 -1    0    0    0  501 -0.0000000000e+00 +0.0000000000e+00 +1.5211495529e+02 1.5211495531e+02 2.5500000000e-03 0.0000e+00 -1.0000e+00
        2 -1    0    0  501    0 +0.0000000000e+00 -0.0000000000e+00 -2.4190233705e+02 2.4190233706e+02 2.5500000000e-03 0.0000e+00 1.0000e+00
  1000101  2    1    2    0    0 +4.0321909576e+01 +1.1676912452e+02 +3.3900038597e+01 1.7905339366e+02 1.2510004130e+02 3.1986e+01 0.0000e+00
 -1000101  2    1    2    0    0 -4.0321909576e+01 -1.1676912452e+02 -1.2368742035e+02 2.1496389871e+02 1.2510001983e+02 2.2000e+00 0.0000e+00
       11  1    3    3    0    0 +9.1866596260e-03 -1.2264112344e-02 -5.1896279921e-02 5.4113659619e-02 5.1100000000e-04 0.0000e+00 1.0000e+00
      255  1    3    3    0    0 +4.0312722916e+01 +1.1678138863e+02 +3.3951934877e+01 1.7899928000e+02 1.2500000000e+02 0.0000e+00 0.0000e+00
      -11  1    4    4    0    0 +2.1405334600e-02 +3.0474578419e-02 +6.3475874332e-04 3.7249863347e-02 5.1100000000e-04 0.0000e+00 -1.0000e+00
      255  1    4    4    0    0 -4.0343314910e+01 -1.1679959910e+02 -1.2368805511e+02 2.1492664885e+02 1.2500000000e+02 0.0000e+00 0.0000e+00
<mgrwt>
<rscale>  0 0.38365069E+03</rscale>
<asrwt>0</asrwt>
<pdfrwt beam="1">  1        2 0.37215744E-01 0.38365069E+03</pdfrwt>
<pdfrwt beam="2">  1       -2 0.23402301E-01 0.38365069E+03</pdfrwt>
<totfact> 0.22229447E+03</totfact>
</mgrwt>
</event>
<event>
 8      1 +1.6198320e-01 2.91986800e+02 7.81860800e-03 1.08931600e-01
       -2 -1    0    0    0  501 -0.0000000000e+00 +0.0000000000e+00 +8.4395531840e+01 8.4395531879e+01 2.5500000000e-03 0.0000e+00 -1.0000e+00
        2 -1    0    0  501    0 +0.0000000000e+00 -0.0000000000e+00 -2.5254986432e+02 2.5254986433e+02 2.5500000000e-03 0.0000e+00 1.0000e+00
  1000101  2    1    2    0    0 -2.5946714190e+01 -6.6605712412e+01 -1.1125182295e+02 1.8203447019e+02 1.2510006923e+02 3.1595e+01 0.0000e+00
 -1000101  2    1    2    0    0 +2.5946714190e+01 +6.6605712412e+01 -5.6902509525e+01 1.5491092603e+02 1.2509974624e+02 6.5306e+01 0.0000e+00
       11  1    3    3    0    0 -3.3001033524e-02 -1.6564588917e-01 -1.4664307779e-01 2.2367852422e-01 5.1100000000e-04 0.0000e+00 1.0000e+00
      255  1    3    3    0    0 -2.5913713157e+01 -6.6440066523e+01 -1.1110517988e+02 1.8181079166e+02 1.2500000000e+02 0.0000e+00 0.0000e+00
      -11  1    4    4    0    0 +1.1783891970e-01 +9.7018423515e-02 -6.1009044334e-02 1.6438050404e-01 5.1100000000e-04 0.0000e+00 -1.0000e+00
      255  1    4    4    0    0 +2.5828875271e+01 +6.6508693988e+01 -5.6841500480e+01 1.5474654552e+02 1.2500000000e+02 0.0000e+00 0.0000e+00
<mgrwt>
<rscale>  0 0.29198685E+03</rscale>
<asrwt>0</asrwt>
<pdfrwt beam="1">  1        2 0.38853825E-01 0.29198685E+03</pdfrwt>
<pdfrwt beam="2">  1       -2 0.12983928E-01 0.29198685E+03</pdfrwt>
<totfact> 0.57091881E+03</totfact>
</mgrwt>
</event>
<event>
 8      1 +1.6198320e-01 3.15583800e+02 7.81860800e-03 1.07770000e-01
       -2 -1    0    0    0  501 -0.0000000000e+00 +0.0000000000e+00 +1.9035220080e+01 1.9035220251e+01 2.5500000000e-03 0.0000e+00 -1.0000e+00
        2 -1    0    0  501    0 +0.0000000000e+00 -0.0000000000e+00 -1.3080114058e+03 1.3080114058e+03 2.5500000000e-03 0.0000e+00 1.0000e+00
  1000101  2    1    2    0    0 +3.5769647459e+01 +2.8676897564e+01 -2.8900506100e+02 3.1823834626e+02 1.2509951083e+02 6.6263e+01 0.0000e+00
 -1000101  2    1    2    0    0 -3.5769647459e+01 -2.8676897564e+01 -9.9997112473e+02 1.0088082798e+03 1.2510021177e+02 5.0481e+00 0.0000e+00
       11  1    3    3    0    0 -7.4159556980e-02 +1.5683669866e-02 -1.9713286753e-01 2.1120427546e-01 5.1100000000e-04 0.0000e+00 1.0000e+00
      255  1    3    3    0    0 +3.5843807016e+01 +2.8661213894e+01 -2.8880792813e+02 3.1802714198e+02 1.2500000000e+02 0.0000e+00 0.0000e+00
      -11  1    4    4    0    0 +4.8778773940e-02 -8.3404498166e-02 -5.8220217635e-01 5.9016549744e-01 5.1100000000e-04 0.0000e+00 -1.0000e+00
      255  1    4    4    0    0 -3.5818426233e+01 -2.8593493066e+01 -9.9938892255e+02 1.0082181143e+03 1.2500000000e+02 0.0000e+00 0.0000e+00
<mgrwt>
<rscale>  0 0.31558381E+03</rscale>
<asrwt>0</asrwt>
<pdfrwt beam="1">  1        2 0.20123245E+00 0.31558381E+03</pdfrwt>
<pdfrwt beam="2">  1       -2 0.29284964E-02 0.31558381E+03</pdfrwt>
<totfact> 0.76452932E+03</totfact>
</mgrwt>
</event>
<event>
 8      1 +1.6198320e-01 2.60002700e+02 7.81860800e-03 1.10714200e-01
        4 -1    0    0  501    0 +0.0000000000e+00 +0.0000000000e+00 +5.0036630463e+02 5.0036791635e+02 1.2700000000e+00 0.0000e+00 1.0000e+00
       -4 -1    0    0    0  501 -0.0000000000e+00 -0.0000000000e+00 -3.3762347264e+01 3.3786224896e+01 1.2700000000e+00 0.0000e+00 -1.0000e+00
  1000101  2    1    2    0    0 -3.2866887635e+01 -3.2605517117e+00 +2.0735611971e+02 2.4441241203e+02 1.2509997312e+02 6.3809e+00 0.0000e+00
 -1000101  2    1    2    0    0 +3.2866887635e+01 +3.2605517117e+00 +2.5924783766e+02 2.8974172921e+02 1.2509981941e+02 1.2288e+02 0.0000e+00
       11  1    3    3    0    0 -4.0568905548e-02 +8.4189784315e-02 +7.8353471678e-02 1.2195607211e-01 5.1100000000e-04 0.0000e+00 1.0000e+00
      255  1    3    3    0    0 -3.2826318730e+01 -3.3447414960e+00 +2.0727776624e+02 2.4429045596e+02 1.2500000000e+02 0.0000e+00 0.0000e+00
      -11  1    4    4    0    0 +1.2453715548e-01 -2.4145154152e-02 +2.2682344448e-01 2.5988772124e-01 5.1100000000e-04 0.0000e+00 -1.0000e+00
      255  1    4    4    0    0 +3.2742350480e+01 +3.2846968658e+00 +2.5902101422e+02 2.8948184149e+02 1.2500000000e+02 0.0000e+00 0.0000e+00
<mgrwt>
<rscale>  0 0.26000268E+03</rscale>
<asrwt>0</asrwt>
<pdfrwt beam="1">  1        4 0.76981397E-01 0.26000268E+03</pdfrwt>
<pdfrwt beam="2">  1       -4 0.51961677E-02 0.26000268E+03</pdfrwt>
<totfact> 0.64563249E+02</totfact>
</mgrwt>
</event>
<event>
 8      1 +1.6198320e-01 3.70983200e+02 7.81860800e-03 1.05431800e-01
       -2 -1    0    0    0  501 -0.0000000000e+00 +0.0000000000e+00 +2.9021060234e+02 2.9021060235e+02 2.5500000000e-03 0.0000e+00 -1.0000e+00
        2 -1    0    0  501    0 +0.0000000000e+00 -0.0000000000e+00 -1.1855919236e+02 1.1855919239e+02 2.5500000000e-03 0.0000e+00 1.0000e+00
  1000101  2    1    2    0    0 +5.7887443733e+01 +5.6100280861e+00 -5.0798851586e+01 1.4701315531e+02 1.2509962412e+02 2.0958e+02 0.0000e+00
 -1000101  2    1    2    0    0 -5.7887443733e+01 -5.6100280861e+00 +2.2245026157e+02 2.6175663943e+02 1.2509992349e+02 4.5256e+01 0.0000e+00
       11  1    3    3    0    0 +1.5474487914e-01 +1.9608046099e-02 -5.3308530558e-02 1.6484087370e-01 5.1100000000e-04 0.0000e+00 1.0000e+00
      255  1    3    3    0    0 +5.7732698854e+01 +5.5904200400e+00 -5.0745543056e+01 1.4684831444e+02 1.2500000000e+02 0.0000e+00 0.0000e+00
      -11  1    4    4    0    0 -1.1821571361e-01 -3.7237401431e-02 +9.8190168875e-02 1.5812384196e-01 5.1100000000e-04 0.0000e+00 -1.0000e+00
      255  1    4    4    0    0 -5.7769228020e+01 -5.5727906847e+00 +2.2235207140e+02 2.6159851559e+02 1.2500000000e+02 0.0000e+00 0.0000e+00
<mgrwt>
<rscale>  0 0.37098321E+03</rscale>
<asrwt>0</asrwt>
<pdfrwt beam="1">  1        2 0.18239876E-01 0.37098321E+03</pdfrwt>
<pdfrwt beam="2">  1       -2 0.44647785E-01 0.37098321E+03</pdfrwt>
<totfact> 0.14962982E+03</totfact>
</mgrwt>
</event>
<event>
 8      1 +1.6198320e-01 2.84462600e+02 7.81860800e-03 1.09327600e-01
       -2 -1    0    0    0  501 -0.0000000000e+00 +0.0000000000e+00 +3.6817742646e+01 3.6817742734e+01 2.5500000000e-03 0.0000e+00 -1.0000e+00
        2 -1    0    0  501    0 +0.0000000000e+00 -0.0000000000e+00 -5.4945652864e+02 5.4945652865e+02 2.5500000000e-03 0.0000e+00 1.0000e+00
  1000101  2    1    2    0    0 -1.4563778688e+01 +6.0753499790e+01 -3.0993200456e+02 3.4001603637e+02 1.2509982475e+02 2.4202e+02 0.0000e+00
 -1000101  2    1    2    0    0 +1.4563778688e+01 -6.0753499790e+01 -2.0270678144e+02 2.4625823501e+02 1.2509991081e+02 2.0576e+01 0.0000e+00
       11  1    3    3    0    0 -8.2589356933e-02 +1.2707364810e-01 -3.9177715187e-01 4.2006941303e-01 5.1100000000e-04 0.0000e+00 1.0000e+00
      255  1    3    3    0    0 -1.4481189331e+01 +6.0626426142e+01 -3.0954022741e+02 3.3959596696e+02 1.2500000000e+02 0.0000e+00 0.0000e+00
      -11  1    4    4    0    0 -4.7334259983e-02 -9.6555161857e-02 -6.6298826872e-02 1.2632983423e-01 5.1100000000e-04 0.0000e+00 -1.0000e+00
      255  1    4    4    0    0 +1.4611112948e+01 -6.0656944628e+01 -2.0264048261e+02 2.4613190518e+02 1.2500000000e+02 0.0000e+00 0.0000e+00
<mgrwt>
<rscale>  0 0.28446264E+03</rscale>
<asrwt>0</asrwt>
<pdfrwt beam="1">  1        2 0.84531768E-01 0.28446264E+03</pdfrwt>
<pdfrwt beam="2">  1       -2 0.56642685E-02 0.28446264E+03</pdfrwt>
<totfact> 0.90081251E+03</totfact>
</mgrwt>
</event>
<event>
 8      1 +1.6198320e-01 3.48238100e+02 7.81860800e-03 1.06334100e-01
       -2 -1    0    0    0  501 -0.0000000000e+00 +0.0000000000e+00 +1.5474763619e+01 1.5474763829e+01 2.5500000000e-03 0.0000e+00 -1.0000e+00
        2 -1    0    0  501    0 +0.0000000000e+00 -0.0000000000e+00 -1.9591536584e+03 1.9591536584e+03 2.5500000000e-03 0.0000e+00 1.0000e+00
  1000101  2    1    2    0    0 -1.5951232843e+01 +7.4284027374e+01 -1.5066240083e+03 1.5137167794e+03 1.2510006875e+02 9.2611e+00 0.0000e+00
 -1000101  2    1    2    0    0 +1.5951232843e+01 -7.4284027374e+01 -4.3705488643e+02 4.6091164281e+02 1.2510000070e+02 1.2699e+02 0.0000e+00
       11  1    3    3    0    0 +2.6183180055e-02 +1.4441648162e-01 -2.1499421125e+00 2.1549461774e+00 5.1100000000e-04 0.0000e+00 1.0000e+00
      255  1    3    3    0    0 -1.5977416023e+01 +7.4139610892e+01 -1.5044740662e+03 1.5115618332e+03 1.2500000000e+02 0.0000e+00 0.0000e+00
      -11  1    4    4    0    0 +1.1232654552e-01 -6.5270065397e-02 -4.3861484883e-01 4.5745019510e-01 5.1100000000e-04 0.0000e+00 -1.0000e+00
      255  1    4    4    0    0 +1.5838906298e+01 -7.4218757308e+01 -4.3661627158e+02 4.6045419262e+02 1.2500000000e+02 0.0000e+00 0.0000e+00
<mgrwt>
<rscale>  0 0.34823808E+03</rscale>
<asrwt>0</asrwt>
<pdfrwt beam="1">  1        2 0.30140806E+00 0.34823808E+03</pdfrwt>
<pdfrwt beam="2">  1       -2 0.23807344E-02 0.34823808E+03</pdfrwt>
<totfact> 0.46612295E+03</totfact>
</mgrwt>
</event>
<event>
 8      1 +1.6198320e-01 3.47327400e+02 7.81860800e-03 1.06371700e-01
        2 -1    0    0  501    0 +0.0000000000e+00 +0.0000000000e+00 +2.3621575510e+02 2.3621575511e+02 2.5500000000e-03 0.0000e+00 1.0000e+00
       -2 -1    0    0    0  501 -0.0000000000e+00 -0.0000000000e+00 -1.2767597619e+02 1.2767597622e+02 2.5500000000e-03 0.0000e+00 -1.0000e+00
  1000101  2    1    2    0    0 -1.4173783145e+01 -1.0101859509e+02 -1.2843253273e+01 1.6192789454e+02 1.2510012467e+02 3.3260e+01 0.0000e+00
 -1000101  2    1    2    0    0 +1.4173783145e+01 +1.0101859509e+02 +1.2138303218e+02 2.0196383679e+02 1.2509955310e+02 1.5086e+01 0.0000e+00
       11  1    3    3    0    0 +2.2655520014e-02 +2.5145847271e-02 -5.4262999196e-02 6.3955612927e-02 5.1100000000e-04 0.0000e+00 1.0000e+00
      255  1    3    3    0    0 -1.4196438665e+01 -1.0104374094e+02 -1.2788990274e+01 1.6186393893e+02 1.2500000000e+02 0.0000e+00 0.0000e+00
      -11  1    4    4    0    0 +2.7986520231e-02 -3.4889444037e-02 -2.2719924425e-03 4.4787740412e-02 5.1100000000e-04 0.0000e+00 -1.0000e+00
      255  1    4    4    0    0 +1.4145796625e+01 +1.0105348454e+02 +1.2138530417e+02 2.0191904905e+02 1.2500000000e+02 0.0000e+00 0.0000e+00
<mgrwt>
<rscale>  0 0.34732738E+03</rscale>
<asrwt>0</asrwt>
<pdfrwt beam="1">  1        2 0.36340885E-01 0.34732738E+03</pdfrwt>
<pdfrwt beam="2">  1       -2 0.19642458E-01 0.34732738E+03</pdfrwt>
<totfact> 0.30883948E+03</totfact>
</mgrwt>
</event>
<event>
 8      1 +1.6198320e-01 3.10628900e+02 7.81860800e-03 1.08004500e-01
       -1 -1    0    0    0  501 -0.0000000000e+00 +0.0000000000e+00 +7.8157967646e+01 7.8157967809e+01 5.0400000000e-03 0.0000e+00 1.0000e+00
        1 -1    0    0  501    0 +0.0000000000e+00 -0.0000000000e+00 -3.0863874824e+02 3.0863874828e+02 5.0400000000e-03 0.0000e+00 -1.0000e+00
  1000101  2    1    2    0    0 +6.6457024548e+01 -6.1406036696e+01 -9.4206926263e+01 1.8086513834e+02 1.2510002341e+02 1.0551e+02 0.0000e+00
 -1000101  2    1    2    0    0 -6.6457024548e+01 +6.1406036696e+01 -1.3627385433e+02 2.0593157775e+02 1.2510001553e+02 5.9750e+01 0.0000e+00
       11  1    3    3    0    0 +1.2732055434e-01 -7.8319683894e-02 -1.4739389457e-02 1.5020654835e-01 5.1100000000e-04 0.0000e+00 1.0000e+00
      255  1    3    3    0    0 +6.6329703994e+01 -6.1327717012e+01 -9.4192186873e+01 1.8071493180e+02 1.2500000000e+02 0.0000e+00 0.0000e+00
      -11  1    4    4    0    0 -5.3828415659e-02 +1.3749966482e-01 -2.1838054019e-01 2.6361710417e-01 5.1100000000e-04 0.0000e+00 -1.0000e+00
      255  1    4    4    0    0 -6.6403196132e+01 +6.1268537031e+01 -1.3605547379e+02 2.0566796064e+02 1.2500000000e+02 0.0000e+00 0.0000e+00
<mgrwt>
<rscale>  0 0.31062889E+03</rscale>
<asrwt>0</asrwt>
<pdfrwt beam="1">  1        1 0.47482884E-01 0.31062889E+03</pdfrwt>
<pdfrwt beam="2">  1       -1 0.12024303E-01 0.31062889E+03</pdfrwt>
<totfact> 0.38559623E+03</totfact>
</mgrwt>
</event>
<event>
 8      1 +1.6198320e-01 2.86455800e+02 7.81860800e-03 1.09221400e-01
        2 -1    0    0  501    0 +0.0000000000e+00 +0.0000000000e+00 +5.9654147648e+01 5.9654147702e+01 2.5500000000e-03 0.0000e+00 1.0000e+00
       -2 -1    0    0    0  501 -0.0000000000e+00 -0.0000000000e+00 -3.4388603496e+02 3.4388603497e+02 2.5500000000e-03 0.0000e+00 -1.0000e+00
  1000101  2    1    2    0    0 -3.9035195665e+01 -9.5458233763e+00 -2.2241805951e+02 2.5833039699e+02 1.2509968653e+02 4.4881e+01 0.0000e+00
 -1000101  2    1    2    0    0 +3.9035195665e+01 +9.5458233763e+00 -6.1813827802e+01 1.4520978568e+02 1.2510021305e+02 7.3431e+01 0.0000e+00
       11  1    3    3    0    0 +7.1939260033e-02 +6.1535372390e-03 -1.0181995828e-01 1.2482262688e-01 5.1100000000e-04 0.0000e+00 1.0000e+00
      255  1    3    3    0    0 -3.9107134925e+01 -9.5519769135e+00 -2.2231623955e+02 2.5820557436e+02 1.2500000000e+02 0.0000e+00 0.0000e+00
      -11  1    4    4    0    0 +7.4661968846e-02 +5.6502347900e-02 -1.4307541151e-01 1.7099052433e-01 5.1100000000e-04 0.0000e+00 -1.0000e+00
      255  1    4    4    0    0 +3.8960533696e+01 +9.4893210284e+00 -6.1670752390e+01 1.4503879515e+02 1.2500000000e+02 0.0000e+00 0.0000e+00
<mgrwt>
<rscale>  0 0.28645578E+03</rscale>
<asrwt>0</asrwt>
<pdfrwt beam="1">  1        2 0.91775614E-02 0.28645578E+03</pdfrwt>
<pdfrwt beam="2">  1       -2 0.52905543E-01 0.28645578E+03</pdfrwt>
<totfact> 0.24429329E+03</totfact>
</mgrwt>
</event>
<event>
 8      1 +1.6198320e-01 2.76654100e+02 7.81860800e-03 1.09753100e-01
       -2 -1    0    0    0  501 -0.0000000000e+00 +0.0000000000e+00 +1.5561530549e+01 1.5561530758e+01 2.5500000000e-03 0.0000e+00 -1.0000e+00
        2 -1    0    0  501    0 +0.0000000000e+00 -0.0000000000e+00 -1.2295945825e+03 1.2295945825e+03 2.5500000000e-03 0.0000e+00 1.0000e+00
  1000101  2    1    2    0    0 -2.6591458620e+01 +3.9489532632e+01 -4.4995246222e+02 4.6943987665e+02 1.2510016258e+02 4.7925e+02 0.0000e+00
 -1000101  2    1    2    0    0 +2.6591458620e+01 -3.9489532632e+01 -7.6408058978e+02 7.7571623665e+02 1.2509997312e+02 7.7006e+01 0.0000e+00
       11  1    3    3    0    0 -1.1178066802e-01 +6.6377098319e-02 -5.8731037764e-01 6.0152687199e-01 5.1100000000e-04 0.0000e+00 1.0000e+00
      255  1    3    3    0    0 -2.6479677952e+01 +3.9423155534e+01 -4.4936515184e+02 4.6883834978e+02 1.2500000000e+02 0.0000e+00 0.0000e+00
      -11  1    4    4    0    0 +2.7563798004e-02 -1.1648789457e-01 -4.2149225160e-01 4.3816112541e-01 5.1100000000e-04 0.0000e+00 -1.0000e+00
      255  1    4    4    0    0 +2.6563894822e+01 -3.9373044738e+01 -7.6365909753e+02 7.7527807553e+02 1.2500000000e+02 0.0000e+00 0.0000e+00
<mgrwt>
<rscale>  0 0.27665411E+03</rscale>
<asrwt>0</asrwt>
<pdfrwt beam="1">  1        2 0.18916832E+00 0.27665411E+03</pdfrwt>
<pdfrwt beam="2">  1       -2 0.23940826E-02 0.27665411E+03</pdfrwt>
<totfact> 0.11379010E+04</totfact>
</mgrwt>
</event>
<event>
 8      1 +1.6198320e-01 2.95848300e+02 7.81860800e-03 1.08733500e-01
        2 -1    0    0  501    0 +0.0000000000e+00 +0.0000000000e+00 +1.6025532108e+02 1.6025532110e+02 2.5500000000e-03 0.0000e+00 1.0000e+00
       -2 -1    0    0    0  501 -0.0000000000e+00 -0.0000000000e+00 -1.3654185387e+02 1.3654185389e+02 2.5500000000e-03 0.0000e+00 -1.0000e+00
  1000101  2    1    2    0    0 -7.1785354124e+00 +6.1919712146e+01 -3.6734727748e+01 1.4451650869e+02 1.2509995579e+02 1.1748e+02 0.0000e+00
 -1000101  2    1    2    0    0 +7.1785354124e+00 -6.1919712146e+01 +6.0448194963e+01 1.5228066630e+02 1.2509930029e+02 1.2483e+01 0.0000e+00
       11  1    3    3    0    0 -7.4617416729e-02 +3.8606747889e-02 +4.4991200106e-02 9.5303247949e-02 5.1100000000e-04 0.0000e+00 1.0000e+00
      255  1    3    3    0    0 -7.1039179957e+00 +6.1881105399e+01 -3.6779718948e+01 1.4442120544e+02 1.2500000000e+02 0.0000e+00 0.0000e+00
      -11  1    4    4    0    0 -4.8305542238e-02 -1.3070094155e-01 +2.1688882927e-02 1.4102067330e-01 5.1100000000e-04 0.0000e+00 -1.0000e+00
      255  1    4    4    0    0 +7.2268409547e+00 -6.1789011205e+01 +6.0426506080e+01 1.5213964563e+02 1.2500000000e+02 0.0000e+00 0.0000e+00
<mgrwt>
<rscale>  0 0.29584833E+03</rscale>
<asrwt>0</asrwt>
<pdfrwt beam="1">  1        2 0.24654665E-01 0.29584833E+03</pdfrwt>
<pdfrwt beam="2">  1       -2 0.21006439E-01 0.29584833E+03</pdfrwt>
<totfact> 0.42071171E+03</totfact>
</mgrwt>
</event>
<event>
 8      1 +1.6198320e-01 2.79217100e+02 7.81860800e-03 1.09611700e-01
       -2 -1    0    0    0  501 -0.0000000000e+00 +0.0000000000e+00 +4.0462672686e+01 4.0462672767e+01 2.5500000000e-03 0.0000e+00 -1.0000e+00
        2 -1    0    0  501    0 +0.0000000000e+00 -0.0000000000e+00 -4.8169219106e+02 4.8169219107e+02 2.5500000000e-03 0.0000e+00 1.0000e+00
  1000101  2    1    2    0    0 -1.7228691551e+01 -5.6090028801e+01 -2.5790469331e+02 2.9258804972e+02 1.2510002743e+02 5.3640e+01 0.0000e+00
 -1000101  2    1    2    0    0 +1.7228691551e+01 +5.6090028801e+01 -1.8332482506e+02 2.2956681412e+02 1.2510000605e+02 2.1457e+02 0.0000e+00
       11  1    3    3    0    0 -1.1214546050e-01 -6.7410719476e-02 -2.8086423588e-01 3.0984801036e-01 5.1100000000e-04 0.0000e+00 1.0000e+00
      255  1    3    3    0    0 -1.7116546090e+01 -5.6022618082e+01 -2.5762382907e+02 2.9227820171e+02 1.2500000000e+02 0.0000e+00 0.0000e+00
      -11  1    4    4    0    0 -4.8927580778e-02 +1.1846194776e-01 -1.2001582733e-01 1.7558815780e-01 5.1100000000e-04 0.0000e+00 -1.0000e+00
      255  1    4    4    0    0 +1.7277619131e+01 +5.5971566854e+01 -1.8320480924e+02 2.2939122596e+02 1.2500000000e+02 0.0000e+00 0.0000e+00
<mgrwt>
<rscale>  0 0.27921714E+03</rscale>
<asrwt>0</asrwt>
<pdfrwt beam="1">  1        2 0.74106487E-01 0.27921714E+03</pdfrwt>
<pdfrwt beam="2">  1       -2 0.62250269E-02 0.27921714E+03</pdfrwt>
<totfact> 0.90322899E+03</totfact>
</mgrwt>
</event>
<event>
 8      1 +1.6198320e-01 8.13368500e+02 7.81860800e-03 9.54086600e-02
        2 -1    0    0  501    0 +0.0000000000e+00 +0.0000000000e+00 +5.0024048147e+02 5.0024048148e+02 2.5500000000e-03 0.0000e+00 1.0000e+00
       -2 -1    0    0    0  501 -0.0000000000e+00 -0.0000000000e+00 -3.3062517853e+02 3.3062517854e+02 2.5500000000e-03 0.0000e+00 -1.0000e+00
  1000101  2    1    2    0    0 -2.9990610689e+02 +2.4445703156e+02 +9.1201609204e+01 4.1673813507e+02 1.2510006584e+02 4.0759e+01 0.0000e+00
 -1000101  2    1    2    0    0 +2.9990610689e+02 -2.4445703156e+02 +7.8413693738e+01 4.1412752494e+02 1.2509990535e+02 6.2064e+01 0.0000e+00
       11  1    3    3    0    0 -1.3689542015e-01 +2.3543250614e-02 +7.8428271425e-02 1.5951769679e-01 5.1100000000e-04 0.0000e+00 1.0000e+00
      255  1    3    3    0    0 -2.9976921147e+02 +2.4443348831e+02 +9.1123180933e+01 4.1657861738e+02 1.2500000000e+02 0.0000e+00 0.0000e+00
      -11  1    4    4    0    0 +2.9684684048e-01 -3.2963440222e-01 +2.3842204813e-02 4.4423597072e-01 5.1100000000e-04 0.0000e+00 -1.0000e+00
      255  1    4    4    0    0 +2.9960926005e+02 -2.4412739716e+02 +7.8389851533e+01 4.1368328897e+02 1.2500000000e+02 0.0000e+00 0.0000e+00
<mgrwt>
<rscale>  0 0.81336855E+03</rscale>
<asrwt>0</asrwt>
<pdfrwt beam="1">  1        2 0.76960074E-01 0.81336855E+03</pdfrwt>
<pdfrwt beam="2">  1       -2 0.50865412E-01 0.81336855E+03</pdfrwt>
<totfact> 0.22637814E+02</totfact>
</mgrwt>
</event>
<event>
 8      1 +1.6198320e-01 4.15912300e+02 7.81860800e-03 1.03840500e-01
        2 -1    0    0  501    0 +0.0000000000e+00 +0.0000000000e+00 +2.4377746205e+03 2.4377746205e+03 2.5500000000e-03 0.0000e+00 1.0000e+00
       -2 -1    0    0    0  501 -0.0000000000e+00 -0.0000000000e+00 -1.7739849325e+01 1.7739849508e+01 2.5500000000e-03 0.0000e+00 -1.0000e+00
  1000101  2    1    2    0    0 -4.8793899114e+01 +1.5869752588e+02 +1.1776658923e+03 1.1958732007e+03 1.2509999518e+02 1.7496e+02 0.0000e+00
 -1000101  2    1    2    0    0 +4.8793899114e+01 -1.5869752588e+02 +1.2423688789e+03 1.2596412694e+03 1.2509974823e+02 1.0095e+02 0.0000e+00
       11  1    3    3    0    0 +8.3013561336e-03 +2.3371724328e-01 +1.1333267217e+00 1.1572045547e+00 5.1100000000e-04 0.0000e+00 1.0000e+00
      255  1    3    3    0    0 -4.8802200470e+01 +1.5846380864e+02 +1.1765325656e+03 1.1947159961e+03 1.2500000000e+02 0.0000e+00 0.0000e+00
      -11  1    4    4    0    0 +1.2549190143e-01 -2.1900238170e-01 +1.8150497133e+00 1.8325162983e+00 5.1100000000e-04 0.0000e+00 -1.0000e+00
      255  1    4    4    0    0 +4.8668407213e+01 -1.5847852350e+02 +1.2405538292e+03 1.2578087531e+03 1.2500000000e+02 0.0000e+00 0.0000e+00
<mgrwt>
<rscale>  0 0.41591227E+03</rscale>
<asrwt>0</asrwt>
<pdfrwt beam="1">  1        2 0.37504218E+00 0.41591227E+03</pdfrwt>
<pdfrwt beam="2">  1       -2 0.27292081E-02 0.41591227E+03</pdfrwt>
<totfact> 0.20904177E+03</totfact>
</mgrwt>
</event>
<event>
 8      1 +1.6198320e-01 2.76932700e+02 7.81860800e-03 1.09737600e-01
       -2 -1    0    0    0  501 -0.0000000000e+00 +0.0000000000e+00 +1.0722164911e+02 1.0722164914e+02 2.5500000000e-03 0.0000e+00 -1.0000e+00
        2 -1    0    0  501    0 +0.0000000000e+00 -0.0000000000e+00 -1.7881588524e+02 1.7881588525e+02 2.5500000000e-03 0.0000e+00 1.0000e+00
  1000101  2    1    2    0    0 +4.5952705666e+01 +1.6396730924e+01 -7.0708047312e+01 1.5175683918e+02 1.2509998538e+02 9.7692e+00 0.0000e+00
 -1000101  2    1    2    0    0 -4.5952705666e+01 -1.6396730924e+01 -8.8618881608e-01 1.3428069521e+02 1.2510002331e+02 5.5235e+01 0.0000e+00
       11  1    3    3    0    0 +5.2806332772e-02 +5.7661661073e-02 -1.6247823366e-01 1.8031309845e-01 5.1100000000e-04 0.0000e+00 1.0000e+00
      255  1    3    3    0    0 +4.5899899333e+01 +1.6339069263e+01 -7.0545569079e+01 1.5157652608e+02 1.2500000000e+02 0.0000e+00 0.0000e+00
      -11  1    4    4    0    0 -6.9700274309e-02 -8.0257833533e-02 +6.8296721827e-02 1.2634932297e-01 5.1100000000e-04 0.0000e+00 -1.0000e+00
      255  1    4    4    0    0 -4.5883005391e+01 -1.6316473091e+01 -9.5448553791e-01 1.3415434589e+02 1.2500000000e+02 0.0000e+00 0.0000e+00
<mgrwt>
<rscale>  0 0.27693273E+03</rscale>
<asrwt>0</asrwt>
<pdfrwt beam="1">  1        2 0.27510136E-01 0.27693273E+03</pdfrwt>
<pdfrwt beam="2">  1       -2 0.16495638E-01 0.27693273E+03</pdfrwt>
<totfact> 0.55997402E+03</totfact>
</mgrwt>
</event>
<event>
 8      1 +1.6198320e-01 2.80142700e+02 7.81860800e-03 1.09561100e-01
        1 -1    0    0  501    0 +0.0000000000e+00 +0.0000000000e+00 +2.6472753409e+03 2.6472753409e+03 5.0400000000e-03 0.0000e+00 1.0000e+00
       -1 -1    0    0    0  501 -0.0000000000e+00 -0.0000000000e+00 -7.4113846306e+00 7.4113863443e+00 5.0400000000e-03 0.0000e+00 -1.0000e+00
  1000101  2    1    2    0    0 +5.1592662769e+01 -2.2955211323e+01 +1.0550659760e+03 1.0639562792e+03 1.2509998304e+02 6.6569e+01 0.0000e+00
 -1000101  2    1    2    0    0 -5.1592662769e+01 +2.2955211323e+01 +1.5847979803e+03 1.5907304481e+03 1.2509986214e+02 4.0706e+01 0.0000e+00
       11  1    3    3    0    0 -1.1173467270e-02 -7.5666768156e-02 +1.2590924903e+00 1.2614136778e+00 5.1100000000e-04 0.0000e+00 1.0000e+00
      255  1    3    3    0    0 +5.1603836236e+01 -2.2879544555e+01 +1.0538068835e+03 1.0626948655e+03 1.2500000000e+02 0.0000e+00 0.0000e+00
      -11  1    4    4    0    0 -1.2551582402e-01 +8.0260243203e-02 +1.4261480166e+00 1.4339087681e+00 5.1100000000e-04 0.0000e+00 -1.0000e+00
      255  1    4    4    0    0 -5.1467146945e+01 +2.2874951080e+01 +1.5833718323e+03 1.5892965393e+03 1.2500000000e+02 0.0000e+00 0.0000e+00
<mgrwt>
<rscale>  0 0.28014266E+03</rscale>
<asrwt>0</asrwt>
<pdfrwt beam="1">  1        1 0.40727292E+00 0.28014266E+03</pdfrwt>
<pdfrwt beam="2">  1       -1 0.11402137E-02 0.28014266E+03</pdfrwt>
<totfact> 0.19645146E+03</totfact>
</mgrwt>
</event>
<event>
 8      1 +1.6198320e-01 2.71280600e+02 7.81860800e-03 1.10054900e-01
       -2 -1    0    0    0  501 -0.0000000000e+00 +0.0000000000e+00 +5.3196450642e+00 5.3196456753e+00 2.5500000000e-03 0.0000e+00 -1.0000e+00
        2 -1    0    0  501    0 +0.0000000000e+00 -0.0000000000e+00 -3.4585550533e+03 3.4585550533e+03 2.5500000000e-03 0.0000e+00 1.0000e+00
  1000101  2    1    2    0    0 -5.2068157283e+01 -2.1868936490e+00 -1.6539573575e+03 1.6595001731e+03 1.2509999398e+02 4.1816e+01 0.0000e+00
 -1000101  2    1    2    0    0 +5.2068157283e+01 +2.1868936490e+00 -1.7992780507e+03 1.8043745259e+03 1.2510016132e+02 1.2254e+02 0.0000e+00
       11  1    3    3    0    0 -1.3247005089e-01 -2.9978688228e-02 -2.3258589912e+00 2.3298213116e+00 5.1100000000e-04 0.0000e+00 1.0000e+00
      255  1    3    3    0    0 -5.1935687232e+01 -2.1569149607e+00 -1.6516314985e+03 1.6571703518e+03 1.2500000000e+02 0.0000e+00 0.0000e+00
      -11  1    4    4    0    0 +1.0391663718e-02 +6.9399200243e-02 -3.9304643894e-01 3.9926181880e-01 5.1100000000e-04 0.0000e+00 -1.0000e+00
      255  1    4    4    0    0 +5.2057765619e+01 +2.1174944487e+00 -1.7988850042e+03 1.8039752640e+03 1.2500000000e+02 0.0000e+00 0.0000e+00
<mgrwt>
<rscale>  0 0.27128057E+03</rscale>
<asrwt>0</asrwt>
<pdfrwt beam="1">  1        2 0.53208360E+00 0.27128057E+03</pdfrwt>
<pdfrwt beam="2">  1       -2 0.81840974E-03 0.27128057E+03</pdfrwt>
<totfact> 0.30814016E+03</totfact>
</mgrwt>
</event>
<event>
 8      1 +1.6198320e-01 3.50090700e+02 7.81860800e-03 1.06257800e-01
       -1 -1    0    0    0  501 -0.0000000000e+00 +0.0000000000e+00 +3.9537613975e+02 3.9537613978e+02 5.0400000000e-03 0.0000e+00 -1.0000e+00
        1 -1    0    0  501    0 +0.0000000000e+00 -0.0000000000e+00 -7.7498016243e+01 7.7498016407e+01 5.0400000000e-03 0.0000e+00 1.0000e+00
  1000101  2    1    2    0    0 +6.5838547639e+01 -4.8677486302e+01 +2.8189645253e+02 3.1909216036e+02 1.2509989939e+02 7.3090e+01 0.0000e+00
 -1000101  2    1    2    0    0 -6.5838547639e+01 +4.8677486302e+01 +3.5981670973e+01 1.5378199583e+02 1.2509999827e+02 2.0942e+01 0.0000e+00
       11  1    3    3    0    0 -4.8922813207e-03 -1.8876663888e-02 -1.7082102709e-02 2.5929176812e-02 5.1100000000e-04 0.0000e+00 1.0000e+00
      255  1    3    3    0    0 +6.5843439920e+01 -4.8658609638e+01 +2.8191353464e+02 3.1906623119e+02 1.2500000000e+02 0.0000e+00 0.0000e+00
      -11  1    4    4    0    0 -1.2140361425e-01 +1.2746139194e-01 +7.4019163725e-02 1.9095638692e-01 5.1100000000e-04 0.0000e+00 -1.0000e+00
      255  1    4    4    0    0 -6.5717144025e+01 +4.8550024910e+01 +3.5907651809e+01 1.5359103944e+02 1.2500000000e+02 0.0000e+00 0.0000e+00
<mgrwt>
<rscale>  0 0.35009065E+03</rscale>
<asrwt>0</asrwt>
<pdfrwt beam="1">  1        1 0.11922772E-01 0.35009065E+03</pdfrwt>
<pdfrwt beam="2">  1       -1 0.60827099E-01 0.35009065E+03</pdfrwt>
<totfact> 0.14372602E+03</totfact>
</mgrwt>
</event>
<event>
 8      1 +1.6198320e-01 3.99283000e+02 7.81860800e-03 1.04402800e-01
       -1 -1    0    0    0  501 -0.0000000000e+00 +0.0000000000e+00 +6.4396653624e+02 6.4396653626e+02 5.0400000000e-03 0.0000e+00 -1.0000e+00
        1 -1    0    0  501    0 +0.0000000000e+00 -0.0000000000e+00 -6.1892554621e+01 6.1892554826e+01 5.0400000000e-03 0.0000e+00 1.0000e+00
  1000101  2    1    2    0    0 +5.1508666749e+01 -1.0167557807e+02 +4.7825570751e+02 5.0731607759e+02 1.2510001955e+02 2.5265e+02 0.0000e+00
 -1000101  2    1    2    0    0 -5.1508666749e+01 +1.0167557807e+02 +1.0381827411e+02 1.9854301349e+02 1.2510007291e+02 1.2132e+02 0.0000e+00
       11  1    3    3    0    0 +1.4114813836e-01 -1.3760420589e-01 +4.7116729917e-01 5.1074122545e-01 5.1100000000e-04 0.0000e+00 1.0000e+00
      255  1    3    3    0    0 +5.1367518610e+01 -1.0153797386e+02 +4.7778454021e+02 5.0680533637e+02 1.2500000000e+02 0.0000e+00 0.0000e+00
      -11  1    4    4    0    0 +2.2901625898e-02 -3.2139792784e-02 +6.0593050692e-02 7.2313412740e-02 5.1100000000e-04 0.0000e+00 -1.0000e+00
      255  1    4    4    0    0 -5.1531568374e+01 +1.0170771786e+02 +1.0375768106e+02 1.9847070008e+02 1.2500000000e+02 0.0000e+00 0.0000e+00
<mgrwt>
<rscale>  0 0.39928303E+03</rscale>
<asrwt>0</asrwt>
<pdfrwt beam="1">  1        1 0.95219319E-02 0.39928303E+03</pdfrwt>
<pdfrwt beam="2">  1       -1 0.99071770E-01 0.39928303E+03</pdfrwt>
<totfact> 0.70705920E+02</totfact>
</mgrwt>
</event>
<event>
 8      1 +1.6198320e-01 3.96587900e+02 7.81860800e-03 1.04496800e-01
       -4 -1    0    0    0  501 -0.0000000000e+00 +0.0000000000e+00 +1.5452099729e+03 1.5452104948e+03 1.2700000000e+00 0.0000e+00 -1.0000e+00
        4 -1    0    0  501    0 +0.0000000000e+00 -0.0000000000e+00 -2.5430323389e+01 2.5462015782e+01 1.2700000000e+00 0.0000e+00 1.0000e+00
  1000101  2    1    2    0    0 -7.7074296219e+01 +2.2922001815e+01 +1.2793697852e+03 1.2879840529e+03 1.2509999174e+02 1.2841e+02 0.0000e+00
 -1000101  2    1    2    0    0 +7.7074296219e+01 -2.2922001815e+01 +2.4040986438e+02 2.8268845776e+02 1.2509994386e+02 6.0716e+00 0.0000e+00
       11  1    3    3    0    0 -1.7523011157e-01 +4.3751135011e-02 +1.7300000953e+00 1.7394022952e+00 5.1100000000e-04 0.0000e+00 1.0000e+00
      255  1    3    3    0    0 -7.6899066108e+01 +2.2878250680e+01 +1.2776397851e+03 1.2862446506e+03 1.2500000000e+02 0.0000e+00 0.0000e+00
      -11  1    4    4    0    0 +7.7503175689e-02 +3.9112042760e-02 +3.4347074195e-01 3.5427236109e-01 5.1100000000e-04 0.0000e+00 -1.0000e+00
      255  1    4    4    0    0 +7.6996793043e+01 -2.2961113858e+01 +2.4006639364e+02 2.8233418540e+02 1.2500000000e+02 0.0000e+00 0.0000e+00
<mgrwt>
<rscale>  0 0.39658789E+03</rscale>
<asrwt>0</asrwt>
<pdfrwt beam="1">  1        4 0.39148352E-02 0.39658789E+03</pdfrwt>
<pdfrwt beam="2">  1       -4 0.23772710E+00 0.39658789E+03</pdfrwt>
<totfact> 0.56900392E+01</totfact>
</mgrwt>
</event>
<event>
 8      1 +1.6198320e-01 4.70332700e+02 7.81860800e-03 1.02182600e-01
       -1 -1    0    0    0  501 -0.0000000000e+00 +0.0000000000e+00 +3.6234205341e+02 3.6234205345e+02 5.0400000000e-03 0.0000e+00 -1.0000e+00
        1 -1    0    0  501    0 +0.0000000000e+00 -0.0000000000e+00 -1.5262708786e+02 1.5262708795e+02 5.0400000000e-03 0.0000e+00 1.0000e+00
  1000101  2    1    2    0    0 +9.9378925741e+01 +3.4779729736e+01 +2.8991695767e+02 3.3284771742e+02 1.2509980082e+02 5.1934e+01 0.0000e+00
 -1000101  2    1    2    0    0 -9.9378925741e+01 -3.4779729736e+01 -8.0201992117e+01 1.8212142397e+02 1.2510017206e+02 2.0394e+00 0.0000e+00
       11  1    3    3    0    0 -9.7149619343e-03 +6.6412505239e-02 +2.5456174349e-01 2.6326211978e-01 5.1100000000e-04 0.0000e+00 1.0000e+00
      255  1    3    3    0    0 +9.9388640703e+01 +3.4713317231e+01 +2.8966239592e+02 3.3258445530e+02 1.2500000000e+02 0.0000e+00 0.0000e+00
      -11  1    4    4    0    0 -1.1272904567e-01 -1.0869451882e-01 -1.4012378252e-02 1.5722259388e-01 5.1100000000e-04 0.0000e+00 -1.0000e+00
      255  1    4    4    0    0 -9.9266196696e+01 -3.4671035218e+01 -8.0187979738e+01 1.8196420138e+02 1.2500000000e+02 0.0000e+00 0.0000e+00
<mgrwt>
<rscale>  0 0.47033270E+03</rscale>
<asrwt>0</asrwt>
<pdfrwt beam="1">  1        1 0.23481091E-01 0.47033270E+03</pdfrwt>
<pdfrwt beam="2">  1       -1 0.55744930E-01 0.47033270E+03</pdfrwt>
<totfact> 0.69567155E+02</totfact>
</mgrwt>
</event>
<event>
 8      1 +1.6198320e-01 4.25034800e+02 7.81860800e-03 1.03544000e-01
       -2 -1    0    0    0  501 -0.0000000000e+00 +0.0000000000e+00 +5.4637648742e+01 5.4637648801e+01 2.5500000000e-03 0.0000e+00 -1.0000e+00
        2 -1    0    0  501    0 +0.0000000000e+00 -0.0000000000e+00 -8.2660320018e+02 8.2660320019e+02 2.5500000000e-03 0.0000e+00 1.0000e+00
  1000101  2    1    2    0    0 +1.1526021524e+01 +1.5196422713e+02 -5.5038715567e+02 5.8463836002e+02 1.2510002150e+02 8.7683e+00 0.0000e+00
 -1000101  2    1    2    0    0 -1.1526021524e+01 -1.5196422713e+02 -2.2157839577e+02 2.9660248897e+02 1.2510026175e+02 8.9831e+02 0.0000e+00
       11  1    3    3    0    0 -7.0401645840e-02 +1.1055338930e-01 -2.2284666061e-01 2.5853305183e-01 5.1100000000e-04 0.0000e+00 1.0000e+00
      255  1    3    3    0    0 +1.1596423170e+01 +1.5185367374e+02 -5.5016430901e+02 5.8437982697e+02 1.2500000000e+02 0.0000e+00 0.0000e+00
      -11  1    4    4    0    0 -7.7508892446e-03 -2.7853455195e-01 -3.0364404954e-01 4.1211836025e-01 5.1100000000e-04 0.0000e+00 -1.0000e+00
      255  1    4    4    0    0 -1.1518270635e+01 -1.5168569258e+02 -2.2127475172e+02 2.9619037061e+02 1.2500000000e+02 0.0000e+00 0.0000e+00
<mgrwt>
<rscale>  0 0.42503485E+03</rscale>
<asrwt>0</asrwt>
<pdfrwt beam="1">  1        2 0.12716971E+00 0.42503485E+03</pdfrwt>
<pdfrwt beam="2">  1       -2 0.84057927E-02 0.42503485E+03</pdfrwt>
<totfact> 0.29879532E+03</totfact>
</mgrwt>
</event>
<event>
 8      1 +1.6198320e-01 2.76717500e+02 7.81860800e-03 1.09749500e-01
        1 -1    0    0  501    0 +0.0000000000e+00 +0.0000000000e+00 +2.2042669848e+02 2.2042669854e+02 5.0400000000e-03 0.0000e+00 1.0000e+00
       -1 -1    0    0    0  501 -0.0000000000e+00 -0.0000000000e+00 -8.6845842444e+01 8.6845842591e+01 5.0400000000e-03 0.0000e+00 -1.0000e+00
  1000101  2    1    2    0    0 +4.5540280230e+01 +1.8534650187e+01 +1.0320875914e+02 1.6946833521e+02 1.2510003315e+02 2.5548e+02 0.0000e+00
 -1000101  2    1    2    0    0 -4.5540280230e+01 -1.8534650187e+01 +3.0372096895e+01 1.3780420592e+02 1.2510029783e+02 3.9361e+01 0.0000e+00
       11  1    3    3    0    0 +1.6505796104e-02 -6.4443989415e-02 +1.4491897431e-01 1.5945920893e-01 5.1100000000e-04 0.0000e+00 1.0000e+00
      255  1    3    3    0    0 +4.5523774434e+01 +1.8599094176e+01 +1.0306384017e+02 1.6930887600e+02 1.2500000000e+02 0.0000e+00 0.0000e+00
      -11  1    4    4    0    0 -1.0966065251e-01 +1.9418468936e-02 -3.5365718605e-02 1.1684832399e-01 5.1100000000e-04 0.0000e+00 -1.0000e+00
      255  1    4    4    0    0 -4.5430619577e+01 -1.8554068656e+01 +3.0407462614e+01 1.3768735759e+02 1.2500000000e+02 0.0000e+00 0.0000e+00
<mgrwt>
<rscale>  0 0.27671749E+03</rscale>
<asrwt>0</asrwt>
<pdfrwt beam="1">  1        1 0.33911800E-01 0.27671749E+03</pdfrwt>
<pdfrwt beam="2">  1       -1 0.13360899E-01 0.27671749E+03</pdfrwt>
<totfact> 0.49763167E+03</totfact>
</mgrwt>
</event>
<event>
 8      1 +1.6198320e-01 2.60043100e+02 7.81860800e-03 1.10711700e-01
       -2 -1    0    0    0  501 -0.0000000000e+00 +0.0000000000e+00 +7.6682271975e+00 7.6682276214e+00 2.5500000000e-03 0.0000e+00 -1.0000e+00
        2 -1    0    0  501    0 +0.0000000000e+00 -0.0000000000e+00 -2.2046303363e+03 2.2046303363e+03 2.5500000000e-03 0.0000e+00 1.0000e+00
  1000101  2    1    2    0    0 +3.2660013277e+01 +5.5351593881e+00 -1.2055115331e+03 1.2124377769e+03 1.2509992765e+02 5.2746e+01 0.0000e+00
 -1000101  2    1    2    0    0 -3.2660013277e+01 -5.5351593881e+00 -9.9145057592e+02 9.9986078697e+02 1.2510009738e+02 6.5304e+01 0.0000e+00
       11  1    3    3    0    0 -4.2528477999e-02 -1.4429492877e-02 -1.1533609752e-01 1.2377220293e-01 5.1100000000e-04 0.0000e+00 1.0000e+00
      255  1    3    3    0    0 +3.2702541755e+01 +5.5495888810e+00 -1.2053961970e+03 1.2123140047e+03 1.2500000000e+02 0.0000e+00 0.0000e+00
      -11  1    4    4    0    0 +2.0560171499e-02 +5.5613554073e-02 -1.1974633584e+00 1.1989305000e+00 5.1100000000e-04 0.0000e+00 -1.0000e+00
      255  1    4    4    0    0 -3.2680573448e+01 -5.5907729422e+00 -9.9025311257e+02 9.9866185647e+02 1.2500000000e+02 0.0000e+00 0.0000e+00
<mgrwt>
<rscale>  0 0.26004313E+03</rscale>
<asrwt>0</asrwt>
<pdfrwt beam="1">  1        2 0.33917339E+00 0.26004313E+03</pdfrwt>
<pdfrwt beam="2">  1       -2 0.11797291E-02 0.26004313E+03</pdfrwt>
<totfact> 0.96969376E+03</totfact>
</mgrwt>
</event>
<event>
 8      1 +1.6198320e-01 2.66378500e+02 7.81860800e-03 1.10337000e-01
       -2 -1    0    0    0  501 -0.0000000000e+00 +0.0000000000e+00 +3.9461873546e+02 3.9461873547e+02 2.5500000000e-03 0.0000e+00 -1.0000e+00
        2 -1    0    0  501    0 +0.0000000000e+00 -0.0000000000e+00 -4.4953203868e+01 4.4953203940e+01 2.5500000000e-03 0.0000e+00 1.0000e+00
  1000101  2    1    2    0    0 +1.7874196751e+00 -2.2327314999e+01 +1.0908059195e+02 1.6748219791e+02 1.2509998885e+02 1.6387e+01 0.0000e+00
 -1000101  2    1    2    0    0 -1.7874196751e+00 +2.2327314999e+01 +2.4058493964e+02 2.7208974151e+02 1.2510000154e+02 8.7101e+00 0.0000e+00
       11  1    3    3    0    0 -4.9807574056e-03 -1.1279206039e-01 +5.5596496118e-02 1.2584946696e-01 5.1100000000e-04 0.0000e+00 1.0000e+00
      255  1    3    3    0    0 +1.7924004325e+00 -2.2214522939e+01 +1.0902499545e+02 1.6735634844e+02 1.2500000000e+02 0.0000e+00 0.0000e+00
      -11  1    4    4    0    0 +6.3167014218e-02 +2.9021660197e-02 +3.5581340439e-01 3.6254071262e-01 5.1100000000e-04 0.0000e+00 -1.0000e+00
      255  1    4    4    0    0 -1.8505866893e+00 +2.2298293339e+01 +2.4022912624e+02 2.7172720079e+02 1.2500000000e+02 0.0000e+00 0.0000e+00
<mgrwt>
<rscale>  0 0.26637850E+03</rscale>
<asrwt>0</asrwt>
<pdfrwt beam="1">  1        2 0.69158774E-02 0.26637850E+03</pdfrwt>
<pdfrwt beam="2">  1       -2 0.60710576E-01 0.26637850E+03</pdfrwt>
<totfact> 0.26359555E+03</totfact>
</mgrwt>
</event>
<event>
 8      1 +1.6198320e-01 2.89919100e+02 7.81860800e-03 1.09039100e-01
        2 -1    0    0  501    0 +0.0000000000e+00 +0.0000000000e+00 +6.0259309045e+01 6.0259309099e+01 2.5500000000e-03 0.0000e+00 1.0000e+00
       -2 -1    0    0    0  501 -0.0000000000e+00 -0.0000000000e+00 -3.4871403325e+02 3.4871403326e+02 2.5500000000e-03 0.0000e+00 -1.0000e+00
  1000101  2    1    2    0    0 -4.5767785528e+01 +2.9311746316e+01 -7.4985517834e+01 1.5564938074e+02 1.2510009263e+02 2.1231e+01 0.0000e+00
 -1000101  2    1    2    0    0 +4.5767785528e+01 -2.9311746316e+01 -2.1346920638e+02 2.5332396162e+02 1.2510019502e+02 3.5404e+01 0.0000e+00
       11  1    3    3    0    0 +2.0929631926e-02 -3.0353877984e-02 +3.5718663765e-02 5.1337037932e-02 5.1100000000e-04 0.0000e+00 1.0000e+00
      255  1    3    3    0    0 -4.5788715160e+01 +2.9342100194e+01 -7.5021236498e+01 1.5559804371e+02 1.2500000000e+02 0.0000e+00 0.0000e+00
      -11  1    4    4    0    0 -1.5070879626e-02 +6.8993213474e-02 -1.3846096822e-01 1.5543132168e-01 5.1100000000e-04 0.0000e+00 -1.0000e+00
      255  1    4    4    0    0 +4.5782856408e+01 -2.9380739530e+01 -2.1333074541e+02 2.5316853030e+02 1.2500000000e+02 0.0000e+00 0.0000e+00
<mgrwt>
<rscale>  0 0.28991907E+03</rscale>
<asrwt>0</asrwt>
<pdfrwt beam="1">  1        2 0.92706631E-02 0.28991907E+03</pdfrwt>
<pdfrwt beam="2">  1       -2 0.53648312E-01 0.28991907E+03</pdfrwt>
<totfact> 0.23457842E+03</totfact>
</mgrwt>
</event>
<event>
 8      1 +1.6198320e-01 4.39248700e+02 7.81860800e-03 1.03097800e-01
        2 -1    0    0  501    0 +0.0000000000e+00 +0.0000000000e+00 +1.1134359249e+02 1.1134359252e+02 2.5500000000e-03 0.0000e+00 -1.0000e+00
       -2 -1    0    0    0  501 -0.0000000000e+00 -0.0000000000e+00 -4.3320730757e+02 4.3320730757e+02 2.5500000000e-03 0.0000e+00 1.0000e+00
  1000101  2    1    2    0    0 +5.4595381775e+01 -1.2604110147e+02 -3.0613320057e+02 3.5809851107e+02 1.2509992871e+02 1.7279e+02 0.0000e+00
 -1000101  2    1    2    0    0 -5.4595381775e+01 +1.2604110147e+02 -1.5730514498e+01 1.8645238903e+02 1.2510007721e+02 2.5843e+01 0.0000e+00
       11  1    3    3    0    0 +8.1608298111e-02 -9.6302394983e-02 -4.3654737011e-01 4.5443143935e-01 5.1100000000e-04 0.0000e+00 1.0000e+00
      255  1    3    3    0    0 +5.4513773477e+01 -1.2594479907e+02 -3.0569665320e+02 3.5764407963e+02 1.2500000000e+02 0.0000e+00 0.0000e+00
      -11  1    4    4    0    0 -8.0234370657e-02 +2.2232841979e-01 +3.0547366243e-02 2.3832935863e-01 5.1100000000e-04 0.0000e+00 -1.0000e+00
      255  1    4    4    0    0 -5.4515147405e+01 +1.2581877305e+02 -1.5761061865e+01 1.8621405967e+02 1.2500000000e+02 0.0000e+00 0.0000e+00
<mgrwt>
<rscale>  0 0.43924871E+03</rscale>
<asrwt>0</asrwt>
<pdfrwt beam="1">  1        2 0.17129784E-01 0.43924871E+03</pdfrwt>
<pdfrwt beam="2">  1       -2 0.66647277E-01 0.43924871E+03</pdfrwt>
<totfact> 0.70992775E+02</totfact>
</mgrwt>
</event>
<event>
 8      1 +1.6198320e-01 3.71531300e+02 7.81860800e-03 1.05410900e-01
       -2 -1    0    0    0  501 -0.0000000000e+00 +0.0000000000e+00 +2.7975658515e+01 2.7975658631e+01 2.5500000000e-03 0.0000e+00 -1.0000e+00
        2 -1    0    0  501    0 +0.0000000000e+00 -0.0000000000e+00 -1.2335325694e+03 1.2335325694e+03 2.5500000000e-03 0.0000e+00 1.0000e+00
  1000101  2    1    2    0    0 -7.1555894630e+01 -6.3071534976e+01 -2.6732464472e+02 3.1017858669e+02 1.2510006150e+02 4.3481e+02 0.0000e+00
 -1000101  2    1    2    0    0 +7.1555894630e+01 +6.3071534976e+01 -9.3823226620e+02 9.5132964138e+02 1.2510010648e+02 2.6174e+01 0.0000e+00
       11  1    3    3    0    0 +1.3500084909e-02 +4.2275846307e-02 -2.7147519100e-02 5.2026420097e-02 5.1100000000e-04 0.0000e+00 1.0000e+00
      255  1    3    3    0    0 -7.1569394715e+01 -6.3113810822e+01 -2.6729749720e+02 3.1012656027e+02 1.2500000000e+02 0.0000e+00 0.0000e+00
      -11  1    4    4    0    0 +2.3860471151e-03 +6.0883767324e-02 -1.0900895589e-01 1.2488290488e-01 5.1100000000e-04 0.0000e+00 -1.0000e+00
      255  1    4    4    0    0 +7.1553508583e+01 +6.3010651208e+01 -9.3812325725e+02 9.5120475847e+02 1.2500000000e+02 0.0000e+00 0.0000e+00
<mgrwt>
<rscale>  0 0.37153135E+03</rscale>
<asrwt>0</asrwt>
<pdfrwt beam="1">  1        2 0.18977420E+00 0.37153135E+03</pdfrwt>
<pdfrwt beam="2">  1       -2 0.43039484E-02 0.37153135E+03</pdfrwt>
<totfact> 0.47214706E+03</totfact>
</mgrwt>
</event>
<event>
 8      1 +1.6198320e-01 3.25227000e+02 7.81860800e-03 1.07326900e-01
       -2 -1    0    0    0  501 -0.0000000000e+00 +0.0000000000e+00 +2.4276308835e+01 2.4276308969e+01 2.5500000000e-03 0.0000e+00 -1.0000e+00
        2 -1    0    0  501    0 +0.0000000000e+00 -0.0000000000e+00 -1.0892576653e+03 1.0892576653e+03 2.5500000000e-03 0.0000e+00 1.0000e+00
  1000101  2    1    2    0    0 -3.1426839975e+00 +9.9935138839e+00 -8.8638343855e+02 8.9522919349e+02 1.2509980794e+02 1.5760e+01 0.0000e+00
 -1000101  2    1    2    0    0 +3.1426839975e+00 -9.9935138839e+00 -1.7859791793e+02 2.1830478080e+02 1.2510001698e+02 3.5039e+01 0.0000e+00
       11  1    3    3    0    0 -3.6025045019e-02 -1.6651764711e-02 -1.3457189061e+00 1.3463040966e+00 5.1100000000e-04 0.0000e+00 1.0000e+00
      255  1    3    3    0    0 -3.1066589525e+00 +1.0010165649e+01 -8.8503771965e+02 8.9388288939e+02 1.2500000000e+02 0.0000e+00 0.0000e+00
      -11  1    4    4    0    0 +2.4713161982e-02 -3.1309060006e-02 +1.8479247166e-02 4.3962953848e-02 5.1100000000e-04 0.0000e+00 -1.0000e+00
      255  1    4    4    0    0 +3.1179708356e+00 -9.9622048239e+00 -1.7861639717e+02 2.1826081784e+02 1.2500000000e+02 0.0000e+00 0.0000e+00
<mgrwt>
<rscale>  0 0.32522703E+03</rscale>
<asrwt>0</asrwt>
<pdfrwt beam="1">  1        2 0.16757806E+00 0.32522703E+03</pdfrwt>
<pdfrwt beam="2">  1       -2 0.37348176E-02 0.32522703E+03</pdfrwt>
<totfact> 0.70884794E+03</totfact>
</mgrwt>
</event>
<event>
 8      1 +1.6198320e-01 4.84582300e+02 7.81860800e-03 1.01788300e-01
        1 -1    0    0  501    0 +0.0000000000e+00 +0.0000000000e+00 +8.7095089876e+02 8.7095089877e+02 5.0400000000e-03 0.0000e+00 1.0000e+00
       -1 -1    0    0    0  501 -0.0000000000e+00 -0.0000000000e+00 -6.7403331976e+01 6.7403332164e+01 5.0400000000e-03 0.0000e+00 -1.0000e+00
  1000101  2    1    2    0    0 -6.3606471695e+01 -1.4730613244e+02 +1.4700347513e+02 2.5100785210e+02 1.2510012078e+02 1.1395e+02 0.0000e+00
 -1000101  2    1    2    0    0 +6.3606471695e+01 +1.4730613244e+02 +6.5654409165e+02 6.8734637884e+02 1.2510004126e+02 4.6089e+00 0.0000e+00
       11  1    3    3    0    0 -9.9863847009e-02 -9.6562667809e-02 +2.2195558862e-01 2.6184285591e-01 5.1100000000e-04 0.0000e+00 1.0000e+00
      255  1    3    3    0    0 -6.3506607847e+01 -1.4720956977e+02 +1.4678151954e+02 2.5074600925e+02 1.2500000000e+02 0.0000e+00 0.0000e+00
      -11  1    4    4    0    0 -4.7101632560e-02 +2.4275891999e-02 +8.4350704378e-02 9.9615185453e-02 5.1100000000e-04 0.0000e+00 -1.0000e+00
      255  1    4    4    0    0 +6.3653573327e+01 +1.4728185655e+02 +6.5645974095e+02 6.8724676365e+02 1.2500000000e+02 0.0000e+00 0.0000e+00
<mgrwt>
<rscale>  0 0.48458226E+03</rscale>
<asrwt>0</asrwt>
<pdfrwt beam="1">  1        1 0.13399244E+00 0.48458226E+03</pdfrwt>
<pdfrwt beam="2">  1       -1 0.10369744E-01 0.48458226E+03</pdfrwt>
<totfact> 0.11574038E+03</totfact>
</mgrwt>
</event>
<event>
 8      1 +1.6198320e-01 2.95539100e+02 7.81860800e-03 1.08749200e-01
       -1 -1    0    0    0  501 -0.0000000000e+00 +0.0000000000e+00 +2.6003348013e+01 2.6003348501e+01 5.0400000000e-03 0.0000e+00 -1.0000e+00
        1 -1    0    0  501    0 +0.0000000000e+00 -0.0000000000e+00 -8.3973158068e+02 8.3973158070e+02 5.0400000000e-03 0.0000e+00 1.0000e+00
  1000101  2    1    2    0    0 +3.1107943525e+01 -5.5180316320e+01 -5.4342503122e+02 5.6122481993e+02 1.2509981010e+02 1.1354e+02 0.0000e+00
 -1000101  2    1    2    0    0 -3.1107943525e+01 +5.5180316320e+01 -2.7030320145e+02 3.0451010927e+02 1.2510001788e+02 1.9425e+02 0.0000e+00
       11  1    3    3    0    0 +1.0462974040e-01 +7.0310427704e-03 -5.4968584390e-01 5.5959950523e-01 5.1100000000e-04 0.0000e+00 1.0000e+00
      255  1    3    3    0    0 +3.1003313785e+01 -5.5187347363e+01 -5.4287534538e+02 5.6066522042e+02 1.2500000000e+02 0.0000e+00 0.0000e+00
      -11  1    4    4    0    0 +4.6911464461e-02 +1.0783260219e-01 -1.6977077373e-01 2.0652102151e-01 5.1100000000e-04 0.0000e+00 -1.0000e+00
      255  1    4    4    0    0 -3.1154854990e+01 +5.5072483718e+01 -2.7013343067e+02 3.0430358825e+02 1.2500000000e+02 0.0000e+00 0.0000e+00
<mgrwt>
<rscale>  0 0.29553905E+03</rscale>
<asrwt>0</asrwt>
<pdfrwt beam="1">  1        1 0.12918945E+00 0.29553905E+03</pdfrwt>
<pdfrwt beam="2">  1       -1 0.40005158E-02 0.29553905E+03</pdfrwt>
<totfact> 0.52535084E+03</totfact>
</mgrwt>
</event>
<event>
 8      1 +1.6198320e-01 3.01057500e+02 7.81860800e-03 1.08471300e-01
       -1 -1    0    0    0  501 -0.0000000000e+00 +0.0000000000e+00 +2.7477480624e+02 2.7477480629e+02 5.0400000000e-03 0.0000e+00 -1.0000e+00
        1 -1    0    0  501    0 +0.0000000000e+00 -0.0000000000e+00 -8.2463520220e+01 8.2463520374e+01 5.0400000000e-03 0.0000e+00 1.0000e+00
  1000101  2    1    2    0    0 +2.2679336855e+01 -6.0284883726e+01 +3.2693943578e+01 1.4445611950e+02 1.2510018781e+02 3.7629e+00 0.0000e+00
 -1000101  2    1    2    0    0 -2.2679336855e+01 +6.0284883726e+01 +1.5961734244e+02 2.1278220716e+02 1.2509976878e+02 1.6617e+02 0.0000e+00
       11  1    3    3    0    0 +6.2242648418e-02 -1.0250530746e-01 -4.6722541922e-02 1.2870408845e-01 5.1100000000e-04 0.0000e+00 1.0000e+00
      255  1    3    3    0    0 +2.2617094206e+01 -6.0182378419e+01 +3.2740666119e+01 1.4432741542e+02 1.2500000000e+02 0.0000e+00 0.0000e+00
      -11  1    4    4    0    0 +4.6682635522e-04 +1.5251381093e-01 +1.4308305075e-01 2.0912604091e-01 5.1100000000e-04 0.0000e+00 -1.0000e+00
      255  1    4    4    0    0 -2.2679803681e+01 +6.0132369915e+01 +1.5947425939e+02 2.1257308112e+02 1.2500000000e+02 0.0000e+00 0.0000e+00
<mgrwt>
<rscale>  0 0.30105746E+03</rscale>
<asrwt>0</asrwt>
<pdfrwt beam="1">  1        1 0.12686695E-01 0.30105746E+03</pdfrwt>
<pdfrwt beam="2">  1       -1 0.42273047E-01 0.30105746E+03</pdfrwt>
<totfact> 0.26017051E+03</totfact>
</mgrwt>
</event>
<event>
 8      1 +1.6198320e-01 3.31083700e+02 7.81860800e-03 1.07065800e-01
        1 -1    0    0  501    0 +0.0000000000e+00 +0.0000000000e+00 +4.4229892014e+02 4.4229892017e+02 5.0400000000e-03 0.0000e+00 1.0000e+00
       -1 -1    0    0    0  501 -0.0000000000e+00 -0.0000000000e+00 -6.1958338544e+01 6.1958338749e+01 5.0400000000e-03 0.0000e+00 -1.0000e+00
  1000101  2    1    2    0    0 +6.6654208563e+01 -7.3416725984e+01 +1.2341105485e+02 2.0177491757e+02 1.2510007884e+02 1.0991e+02 0.0000e+00
 -1000101  2    1    2    0    0 -6.6654208563e+01 +7.3416725984e+01 +2.5692952674e+02 3.0248234135e+02 1.2509990385e+02 1.7727e+02 0.0000e+00
       11  1    3    3    0    0 +1.0336238145e-01 -8.6944847621e-02 +2.3689519386e-01 2.7269540227e-01 5.1100000000e-04 0.0000e+00 1.0000e+00
      255  1    3    3    0    0 +6.6550846182e+01 -7.3329781136e+01 +1.2317415966e+02 2.0150222216e+02 1.2500000000e+02 0.0000e+00 0.0000e+00
      -11  1    4    4    0    0 -7.8407762059e-02 -2.4826127460e-02 +5.3892154071e-02 9.8329747014e-02 5.1100000000e-04 0.0000e+00 -1.0000e+00
      255  1    4    4    0    0 -6.6575800801e+01 +7.3441552111e+01 +2.5687563459e+02 3.0238401160e+02 1.2500000000e+02 0.0000e+00 0.0000e+00
<mgrwt>
<rscale>  0 0.33108371E+03</rscale>
<asrwt>0</asrwt>
<pdfrwt beam="1">  1        1 0.68045986E-01 0.33108371E+03</pdfrwt>
<pdfrwt beam="2">  1       -1 0.95320524E-02 0.33108371E+03</pdfrwt>
<totfact> 0.34955356E+03</totfact>
</mgrwt>
</event>
<event>
 8      1 +1.6198320e-01 5.15702100e+02 7.81860800e-03 1.00976000e-01
        2 -1    0    0  501    0 +0.0000000000e+00 +0.0000000000e+00 +1.7187857802e+03 1.7187857802e+03 2.5500000000e-03 0.0000e+00 1.0000e+00
       -2 -1    0    0    0  501 -0.0000000000e+00 -0.0000000000e+00 -3.8682633325e+01 3.8682633409e+01 2.5500000000e-03 0.0000e+00 -1.0000e+00
  1000101  2    1    2    0    0 -2.4632991103e+01 +7.4828086412e+01 +1.2009290948e+02 1.9046872693e+02 1.2509996909e+02 1.6309e+02 0.0000e+00
 -1000101  2    1    2    0    0 +2.4632991103e+01 -7.4828086412e+01 +1.5600102374e+03 1.5669996867e+03 1.2510016184e+02 1.0626e+01 0.0000e+00
       11  1    3    3    0    0 -2.5882893421e-03 -2.7552794891e-02 -2.6587653452e-02 3.8379945092e-02 5.1100000000e-04 0.0000e+00 1.0000e+00
      255  1    3    3    0    0 -2.4630402813e+01 +7.4855639206e+01 +1.2011949713e+02 1.9043034699e+02 1.2500000000e+02 0.0000e+00 0.0000e+00
      -11  1    4    4    0    0 -4.0570874144e-02 +3.6729895109e-02 +3.8255651569e-01 3.8645158797e-01 5.1100000000e-04 0.0000e+00 -1.0000e+00
      255  1    4    4    0    0 +2.4673561977e+01 -7.4864816307e+01 +1.5596276809e+03 1.5666132351e+03 1.2500000000e+02 0.0000e+00 0.0000e+00
<mgrwt>
<rscale>  0 0.51570209E+03</rscale>
<asrwt>0</asrwt>
<pdfrwt beam="1">  1        2 0.26442860E+00 0.51570209E+03</pdfrwt>
<pdfrwt beam="2">  1       -2 0.59511740E-02 0.51570209E+03</pdfrwt>
<totfact> 0.15455269E+03</totfact>
</mgrwt>
</event>
<event>
 8      1 +1.6198320e-01 5.69388200e+02 7.81860800e-03 9.97103300e-02
       -2 -1    0    0    0  501 -0.0000000000e+00 +0.0000000000e+00 +3.4024770639e+01 3.4024770735e+01 2.5500000000e-03 0.0000e+00 -1.0000e+00
        2 -1    0    0  501    0 +0.0000000000e+00 -0.0000000000e+00 -2.3821093620e+03 2.3821093620e+03 2.5500000000e-03 0.0000e+00 1.0000e+00
  1000101  2    1    2    0    0 -2.4519193077e+02 -6.0765518191e+01 -1.3432030808e+03 1.3724635002e+03 1.2510000775e+02 2.8612e+01 0.0000e+00
 -1000101  2    1    2    0    0 +2.4519193077e+02 +6.0765518191e+01 -1.0048815106e+03 1.0436706326e+03 1.2509999154e+02 1.7328e+02 0.0000e+00
       11  1    3    3    0    0 -1.9907079496e-01 -1.3549703052e-01 -1.4372207135e+00 1.4572550453e+00 5.1100000000e-04 0.0000e+00 1.0000e+00
      255  1    3    3    0    0 -2.4499285997e+02 -6.0630021160e+01 -1.3417658601e+03 1.3710062451e+03 1.2500000000e+02 0.0000e+00 0.0000e+00
      -11  1    4    4    0    0 +1.4755176835e-01 -1.7749722103e-02 -3.0507881540e-01 3.3935220893e-01 5.1100000000e-04 0.0000e+00 -1.0000e+00
      255  1    4    4    0    0 +2.4504437900e+02 +6.0783267913e+01 -1.0045764318e+03 1.0433312804e+03 1.2500000000e+02 0.0000e+00 0.0000e+00
<mgrwt>
<rscale>  0 0.56938818E+03</rscale>
<asrwt>0</asrwt>
<pdfrwt beam="1">  1        2 0.36647823E+00 0.56938818E+03</pdfrwt>
<pdfrwt beam="2">  1       -2 0.52345820E-02 0.56938818E+03</pdfrwt>
<totfact> 0.82059056E+02</totfact>
</mgrwt>
</event>
<event>
 8      1 +1.6198320e-01 2.67552100e+02 7.81860800e-03 1.10268900e-01
       -2 -1    0    0    0  501 -0.0000000000e+00 +0.0000000000e+00 +4.0673141795e+01 4.0673141875e+01 2.5500000000e-03 0.0000e+00 -1.0000e+00
        2 -1    0    0  501    0 +0.0000000000e+00 -0.0000000000e+00 -4.3999619839e+02 4.3999619840e+02 2.5500000000e-03 0.0000e+00 1.0000e+00
  1000101  2    1    2    0    0 -3.4887182935e+01 -1.3979378647e+00 -2.5723341934e+02 2.8816329341e+02 1.2509988760e+02 4.9742e+02 0.0000e+00
 -1000101  2    1    2    0    0 +3.4887182935e+01 +1.3979378647e+00 -1.4208963725e+02 1.9250604686e+02 1.2510013310e+02 4.7501e+00 0.0000e+00
       11  1    3    3    0    0 -4.9234770348e-02 +7.2143211308e-02 -3.5838985082e-01 3.6887972544e-01 5.1100000000e-04 0.0000e+00 1.0000e+00
      255  1    3    3    0    0 -3.4837948165e+01 -1.4700810760e+00 -2.5687502949e+02 2.8779441368e+02 1.2500000000e+02 0.0000e+00 0.0000e+00
      -11  1    4    4    0    0 -9.5436610178e-03 -1.0561097670e-02 +3.4770586735e-02 3.7574899503e-02 5.1100000000e-04 0.0000e+00 -1.0000e+00
      255  1    4    4    0    0 +3.4896726596e+01 +1.4084989624e+00 -1.4212440784e+02 1.9246847196e+02 1.2500000000e+02 0.0000e+00 0.0000e+00
<mgrwt>
<rscale>  0 0.26755207E+03</rscale>
<asrwt>0</asrwt>
<pdfrwt beam="1">  1        2 0.67691719E-01 0.26755207E+03</pdfrwt>
<pdfrwt beam="2">  1       -2 0.62574068E-02 0.26755207E+03</pdfrwt>
<totfact> 0.98863801E+03</totfact>
</mgrwt>
</event>
<event>
 8      1 +1.6198320e-01 3.90622600e+02 7.81860800e-03 1.04707600e-01
        2 -1    0    0  501    0 +0.0000000000e+00 +0.0000000000e+00 +1.7007678670e+03 1.7007678670e+03 2.5500000000e-03 0.0000e+00 1.0000e+00
       -2 -1    0    0    0  501 -0.0000000000e+00 -0.0000000000e+00 -2.2428987369e+01 2.2428987514e+01 2.5500000000e-03 0.0000e+00 -1.0000e+00
  1000101  2    1    2    0    0 -6.3518783783e+01 +1.0045871750e+02 +1.2427544965e+03 1.2546774946e+03 1.2510110748e+02 3.7691e+00 0.0000e+00
 -1000101  2    1    2    0    0 +6.3518783783e+01 -1.0045871750e+02 +4.3558438319e+02 4.6851935996e+02 1.2510014376e+02 8.6673e+01 0.0000e+00
       11  1    3    3    0    0 +3.4421476489e-02 +3.4960777664e-02 +1.0511912016e+00 1.0523356392e+00 5.1100000000e-04 0.0000e+00 1.0000e+00
      255  1    3    3    0    0 -6.3553205259e+01 +1.0042375672e+02 +1.2417033053e+03 1.2536251589e+03 1.2500000000e+02 0.0000e+00 0.0000e+00
      -11  1    4    4    0    0 +1.5304300244e-01 -9.3779338069e-02 +5.6681915923e-01 5.9455945475e-01 5.1100000000e-04 0.0000e+00 -1.0000e+00
      255  1    4    4    0    0 +6.3365740780e+01 -1.0036493816e+02 +4.3501756403e+02 4.6792480051e+02 1.2500000000e+02 0.0000e+00 0.0000e+00
<mgrwt>
<rscale>  0 0.39062259E+03</rscale>
<asrwt>0</asrwt>
<pdfrwt beam="1">  1        2 0.26165659E+00 0.39062259E+03</pdfrwt>
<pdfrwt beam="2">  1       -2 0.34506135E-02 0.39062259E+03</pdfrwt>
<totfact> 0.36628084E+03</totfact>
</mgrwt>
</event>
<event>
 8      1 +1.6198320e-01 3.90380800e+02 7.81860800e-03 1.04716200e-01
        2 -1    0    0  501    0 +0.0000000000e+00 +0.0000000000e+00 +6.0110148078e+02 6.0110148079e+02 2.5500000000e-03 0.0000e+00 1.0000e+00
       -2 -1    0    0    0  501 -0.0000000000e+00 -0.0000000000e+00 -6.3382449266e+01 6.3382449317e+01 2.5500000000e-03 0.0000e+00 -1.0000e+00
  1000101  2    1    2    0    0 +4.4577363983e+01 +1.2663696417e+02 +1.5562890885e+02 2.4061258037e+02 1.2509993800e+02 1.6136e+02 0.0000e+00
 -1000101  2    1    2    0    0 -4.4577363983e+01 -1.2663696417e+02 +3.8209012266e+02 4.2387134974e+02 1.2509994890e+02 2.3185e+02 0.0000e+00
       11  1    3    3    0    0 -1.9674952404e-02 +1.3727105422e-01 +2.3347610559e-01 2.7155441274e-01 5.1100000000e-04 0.0000e+00 1.0000e+00
      255  1    3    3    0    0 +4.4597038936e+01 +1.2649969311e+02 +1.5539543275e+02 2.4034102596e+02 1.2500000000e+02 0.0000e+00 0.0000e+00
      -11  1    4    4    0    0 -6.8697194320e-02 -2.4276750287e-01 +5.1612060418e-01 5.7448768841e-01 5.1100000000e-04 0.0000e+00 -1.0000e+00
      255  1    4    4    0    0 -4.4508666789e+01 -1.2639419667e+02 +3.8157400206e+02 4.2329686205e+02 1.2500000000e+02 0.0000e+00 0.0000e+00
<mgrwt>
<rscale>  0 0.39038076E+03</rscale>
<asrwt>0</asrwt>
<pdfrwt beam="1">  1        2 0.92477152E-01 0.39038076E+03</pdfrwt>
<pdfrwt beam="2">  1       -2 0.97511459E-02 0.39038076E+03</pdfrwt>
<totfact> 0.34978243E+03</totfact>
</mgrwt>
</event>
<event>
 8      1 +1.6198320e-01 3.18902500e+02 7.81860800e-03 1.07615500e-01
       -2 -1    0    0    0  501 -0.0000000000e+00 +0.0000000000e+00 +1.2363904065e+02 1.2363904068e+02 2.5500000000e-03 0.0000e+00 -1.0000e+00
        2 -1    0    0  501    0 +0.0000000000e+00 -0.0000000000e+00 -2.0563657306e+02 2.0563657307e+02 2.5500000000e-03 0.0000e+00 1.0000e+00
  1000101  2    1    2    0    0 -1.5145255478e+01 +4.2713389067e+01 +4.9727917712e+01 1.4204464564e+02 1.2509997277e+02 2.5195e+00 0.0000e+00
 -1000101  2    1    2    0    0 +1.5145255478e+01 -4.2713389067e+01 -1.3172545012e+02 1.8723096811e+02 1.2510007530e+02 5.0835e+01 0.0000e+00
       11  1    3    3    0    0 +5.9502283930e-02 +1.2016309542e-03 +1.0130473344e-01 1.1749415240e-01 5.1100000000e-04 0.0000e+00 1.0000e+00
      255  1    3    3    0    0 -1.5204757762e+01 +4.2712187437e+01 +4.9626612979e+01 1.4192715149e+02 1.2500000000e+02 0.0000e+00 0.0000e+00
      -11  1    4    4    0    0 +1.0423601454e-01 -8.0690961583e-02 -1.2940148905e-01 1.8471920447e-01 5.1100000000e-04 0.0000e+00 -1.0000e+00
      255  1    4    4    0    0 +1.5041019464e+01 -4.2632698106e+01 -1.3159604863e+02 1.8704624890e+02 1.2500000000e+02 0.0000e+00 0.0000e+00
<mgrwt>
<rscale>  0 0.31890255E+03</rscale>
<asrwt>0</asrwt>
<pdfrwt beam="1">  1        2 0.31636396E-01 0.31890255E+03</pdfrwt>
<pdfrwt beam="2">  1       -2 0.19021391E-01 0.31890255E+03</pdfrwt>
<totfact> 0.37904361E+03</totfact>
</mgrwt>
</event>
<event>
 8      1 +1.6198320e-01 3.18642700e+02 7.81860800e-03 1.07627600e-01
        2 -1    0    0  501    0 +0.0000000000e+00 +0.0000000000e+00 +5.9628453637e+02 5.9628453638e+02 2.5500000000e-03 0.0000e+00 1.0000e+00
       -2 -1    0    0    0  501 -0.0000000000e+00 -0.0000000000e+00 -4.2569080771e+01 4.2569080847e+01 2.5500000000e-03 0.0000e+00 -1.0000e+00
  1000101  2    1    2    0    0 +5.9320808892e+01 +4.3671783590e+01 +4.0843783199e+02 4.3347166139e+02 1.2510010223e+02 3.4178e+01 0.0000e+00
 -1000101  2    1    2    0    0 -5.9320808892e+01 -4.3671783590e+01 +1.4527762361e+02 2.0538195584e+02 1.2509986735e+02 0.0000e+00 0.0000e+00
       11  1    3    3    0    0 -2.9375977072e-02 -4.4402321282e-02 +2.5928749563e-01 2.6469752677e-01 5.1100000000e-04 0.0000e+00 1.0000e+00
      255  1    3    3    0    0 +5.9350184869e+01 +4.3716185911e+01 +4.0817854449e+02 4.3320696386e+02 1.2500000000e+02 0.0000e+00 0.0000e+00
      -11  1    4    4    0    0 -4.3664625817e-02 +2.0652741774e-02 -2.2342396426e-02 5.3221979384e-02 5.1100000000e-04 0.0000e+00 -1.0000e+00
      255  1    4    4    0    0 -5.9277144266e+01 -4.3692436332e+01 +1.4529996601e+02 2.0532873386e+02 1.2500000000e+02 0.0000e+00 0.0000e+00
<mgrwt>
<rscale>  0 0.31864265E+03</rscale>
<asrwt>0</asrwt>
<pdfrwt beam="1">  1        2 0.91736081E-01 0.31864265E+03</pdfrwt>
<pdfrwt beam="2">  1       -2 0.65490895E-02 0.31864265E+03</pdfrwt>
<totfact> 0.65785740E+03</totfact>
</mgrwt>
</event>
<event>
 8      1 +1.6198320e-01 2.82871300e+02 7.81860800e-03 1.09413100e-01
       -2 -1    0    0    0  501 -0.0000000000e+00 +0.0000000000e+00 +1.0886189927e+02 1.0886189930e+02 2.5500000000e-03 0.0000e+00 -1.0000e+00
        2 -1    0    0  501    0 +0.0000000000e+00 -0.0000000000e+00 -1.8375608878e+02 1.8375608879e+02 2.5500000000e-03 0.0000e+00 1.0000e+00
  1000101  2    1    2    0    0 +2.6026767953e+01 -4.9878609513e+01 -7.3112998451e+01 1.5543737709e+02 1.2509995731e+02 5.2408e+01 0.0000e+00
 -1000101  2    1    2    0    0 -2.6026767953e+01 +4.9878609513e+01 -1.7811910531e+00 1.3718061100e+02 1.2510027600e+02 1.4297e+02 0.0000e+00
       11  1    3    3    0    0 -6.4251773222e-02 +2.6156316576e-02 -3.9988169147e-02 8.0073454104e-02 5.1100000000e-04 0.0000e+00 1.0000e+00
      255  1    3    3    0    0 +2.6091019727e+01 -4.9904765830e+01 -7.3073010281e+01 1.5535730364e+02 1.2500000000e+02 0.0000e+00 0.0000e+00
      -11  1    4    4    0    0 -7.1221201020e-02 +1.2899138293e-01 +3.4670853659e-02 1.5137227474e-01 5.1100000000e-04 0.0000e+00 -1.0000e+00
      255  1    4    4    0    0 -2.5955546752e+01 +4.9749618130e+01 -1.8158619068e+00 1.3702923873e+02 1.2500000000e+02 0.0000e+00 0.0000e+00
<mgrwt>
<rscale>  0 0.28287126E+03</rscale>
<asrwt>0</asrwt>
<pdfrwt beam="1">  1        2 0.28270167E-01 0.28287126E+03</pdfrwt>
<pdfrwt beam="2">  1       -2 0.16747985E-01 0.28287126E+03</pdfrwt>
<totfact> 0.53012671E+03</totfact>
</mgrwt>
</event>
<event>
 8      1 +1.6198320e-01 2.72119200e+02 7.81860800e-03 1.10007300e-01
       -2 -1    0    0    0  501 -0.0000000000e+00 +0.0000000000e+00 +1.3322827803e+01 1.3322828047e+01 2.5500000000e-03 0.0000e+00 -1.0000e+00
        2 -1    0    0  501    0 +0.0000000000e+00 -0.0000000000e+00 -1.3895109420e+03 1.3895109420e+03 2.5500000000e-03 0.0000e+00 1.0000e+00
  1000101  2    1    2    0    0 +1.2351455835e+01 -5.1276638456e+01 -7.3428738043e+02 7.4673283460e+02 1.2510042805e+02 2.3905e+01 0.0000e+00
 -1000101  2    1    2    0    0 -1.2351455835e+01 +5.1276638456e+01 -6.4190073378e+02 6.5610093546e+02 1.2510009342e+02 1.5665e+02 0.0000e+00
       11  1    3    3    0    0 -3.9875623350e-02 -1.2107604386e-01 -9.6575953591e-01 9.7413613836e-01 5.1100000000e-04 0.0000e+00 1.0000e+00
      255  1    3    3    0    0 +1.2391331458e+01 -5.1155562413e+01 -7.3332162090e+02 7.4575869846e+02 1.2500000000e+02 0.0000e+00 0.0000e+00
      -11  1    4    4    0    0 +1.2976267719e-02 -6.1799120547e-03 +3.6020566993e-03 1.4826016687e-02 5.1100000000e-04 0.0000e+00 -1.0000e+00
      255  1    4    4    0    0 -1.2364432102e+01 +5.1282818368e+01 -6.4190433584e+02 6.5608610945e+02 1.2500000000e+02 0.0000e+00 0.0000e+00
<mgrwt>
<rscale>  0 0.27211920E+03</rscale>
<asrwt>0</asrwt>
<pdfrwt beam="1">  1        2 0.21377080E+00 0.27211920E+03</pdfrwt>
<pdfrwt beam="2">  1       -2 0.20496669E-02 0.27211920E+03</pdfrwt>
<totfact> 0.11667895E+04</totfact>
</mgrwt>
</event>
<event>
 8      1 +1.6198320e-01 8.70578600e+02 7.81860800e-03 9.46312600e-02
       -2 -1    0    0    0  501 -0.0000000000e+00 +0.0000000000e+00 +6.8454461628e+01 6.8454461675e+01 2.5500000000e-03 0.0000e+00 -1.0000e+00
        2 -1    0    0  501    0 +0.0000000000e+00 -0.0000000000e+00 -2.7679242278e+03 2.7679242278e+03 2.5500000000e-03 0.0000e+00 1.0000e+00
  1000101  2    1    2    0    0 -3.6342497222e+02 +1.4608304832e+02 -8.8429383102e+02 9.7521462838e+02 1.2510005748e+02 3.1910e+01 0.0000e+00
 -1000101  2    1    2    0    0 +3.6342497222e+02 -1.4608304832e+02 -1.8151759352e+03 1.8611640611e+03 1.2510003726e+02 6.4905e+01 0.0000e+00
       11  1    3    3    0    0 -1.6929473584e-01 +5.9599867744e-02 -6.4864984617e-01 6.7302283458e-01 5.1100000000e-04 0.0000e+00 1.0000e+00
      255  1    3    3    0    0 -3.6325567749e+02 +1.4602344845e+02 -8.8364518117e+02 9.7454160554e+02 1.2500000000e+02 0.0000e+00 0.0000e+00
      -11  1    4    4    0    0 +5.7844210083e-02 -9.5098469599e-02 -3.7242146835e-01 3.8869999069e-01 5.1100000000e-04 0.0000e+00 -1.0000e+00
      255  1    4    4    0    0 +3.6336712801e+02 -1.4598794985e+02 -1.8148035137e+03 1.8607753611e+03 1.2500000000e+02 0.0000e+00 0.0000e+00
<mgrwt>
<rscale>  0 0.87057857E+03</rscale>
<asrwt>0</asrwt>
<pdfrwt beam="1">  1        2 0.42583441E+00 0.87057857E+03</pdfrwt>
<pdfrwt beam="2">  1       -2 0.10531458E-01 0.87057857E+03</pdfrwt>
<totfact> 0.15763777E+02</totfact>
</mgrwt>
</event>
<event>
 8      1 +1.6198320e-01 2.70010400e+02 7.81860800e-03 1.10127400e-01
       -1 -1    0    0    0  501 -0.0000000000e+00 +0.0000000000e+00 +2.1757834209e+01 2.1757834793e+01 5.0400000000e-03 0.0000e+00 1.0000e+00
        1 -1    0    0  501    0 +0.0000000000e+00 -0.0000000000e+00 -8.3769396126e+02 8.3769396128e+02 5.0400000000e-03 0.0000e+00 -1.0000e+00
  1000101  2    1    2    0    0 +3.3546375927e+01 +1.4436472360e+01 -5.2016136725e+02 5.3623842530e+02 1.2510007881e+02 1.6849e+01 0.0000e+00
 -1000101  2    1    2    0    0 -3.3546375927e+01 -1.4436472360e+01 -2.9577475981e+02 3.2321337077e+02 1.2510157247e+02 7.8997e+01 0.0000e+00
       11  1    3    3    0    0 -5.2048210206e-02 -3.3495740612e-02 -5.1647807260e-01 5.2017385692e-01 5.1100000000e-04 0.0000e+00 1.0000e+00
      255  1    3    3    0    0 +3.3598424137e+01 +1.4469968101e+01 -5.1964488918e+02 5.3571825144e+02 1.2500000000e+02 0.0000e+00 0.0000e+00
      -11  1    4    4    0    0 +2.9547628498e-02 +7.5291496173e-02 -2.1016139347e-01 2.2518868571e-01 5.1100000000e-04 0.0000e+00 -1.0000e+00
      255  1    4    4    0    0 -3.3575923555e+01 -1.4511763856e+01 -2.9556459841e+02 3.2298818209e+02 1.2500000000e+02 0.0000e+00 0.0000e+00
<mgrwt>
<rscale>  0 0.27001042E+03</rscale>
<asrwt>0</asrwt>
<pdfrwt beam="1">  1        1 0.12887597E+00 0.27001042E+03</pdfrwt>
<pdfrwt beam="2">  1       -1 0.33473598E-02 0.27001042E+03</pdfrwt>
<totfact> 0.68575748E+03</totfact>
</mgrwt>
</event>
<event>
 8      1 +1.6198320e-01 3.60811100e+02 7.81860800e-03 1.05826300e-01
        2 -1    0    0  501    0 +0.0000000000e+00 +0.0000000000e+00 +2.4893970132e+02 2.4893970134e+02 2.5500000000e-03 0.0000e+00 1.0000e+00
       -2 -1    0    0    0  501 -0.0000000000e+00 -0.0000000000e+00 -1.3073917345e+02 1.3073917348e+02 2.5500000000e-03 0.0000e+00 -1.0000e+00
  1000101  2    1    2    0    0 +7.8729803925e+01 +1.7975216518e+01 -4.8082019766e+01 1.5647166793e+02 1.2510000722e+02 2.0684e+02 0.0000e+00
 -1000101  2    1    2    0    0 -7.8729803925e+01 -1.7975216518e+01 +1.6628254764e+02 2.2320720688e+02 1.2510028426e+02 2.1334e+02 0.0000e+00
       11  1    3    3    0    0 +3.1903242698e-02 -8.2190851461e-02 -5.9681984711e-03 8.8368735833e-02 5.1100000000e-04 0.0000e+00 1.0000e+00
      255  1    3    3    0    0 +7.8697900682e+01 +1.8057407369e+01 -4.8076051567e+01 1.5638329919e+02 1.2500000000e+02 0.0000e+00 0.0000e+00
      -11  1    4    4    0    0 -1.4818387772e-01 -1.3052396573e-02 +7.9288771015e-02 1.6856985793e-01 5.1100000000e-04 0.0000e+00 -1.0000e+00
      255  1    4    4    0    0 -7.8581620047e+01 -1.7962164121e+01 +1.6620325887e+02 2.2303863703e+02 1.2500000000e+02 0.0000e+00 0.0000e+00
<mgrwt>
<rscale>  0 0.36081115E+03</rscale>
<asrwt>0</asrwt>
<pdfrwt beam="1">  1        2 0.38298415E-01 0.36081115E+03</pdfrwt>
<pdfrwt beam="2">  1       -2 0.20113719E-01 0.36081115E+03</pdfrwt>
<totfact> 0.28019123E+03</totfact>
</mgrwt>
</event>
<event>
 8      1 +1.6198320e-01 2.95279300e+02 7.81860800e-03 1.08762500e-01
       -2 -1    0    0    0  501 -0.0000000000e+00 +0.0000000000e+00 +1.0026254200e+01 1.0026254524e+01 2.5500000000e-03 0.0000e+00 -1.0000e+00
        2 -1    0    0  501    0 +0.0000000000e+00 -0.0000000000e+00 -2.1740385289e+03 2.1740385289e+03 2.5500000000e-03 0.0000e+00 1.0000e+00
  1000101  2    1    2    0    0 +4.2237026662e+01 -3.4685274775e+01 -6.6618504078e+02 6.8002905504e+02 1.2509984985e+02 1.7628e+01 0.0000e+00
 -1000101  2    1    2    0    0 -4.2237026662e+01 +3.4685274775e+01 -1.4978272339e+03 1.5040357284e+03 1.2510001949e+02 1.5849e+02 0.0000e+00
       11  1    3    3    0    0 +6.2474253056e-02 -1.0009282507e-01 -3.2563028662e-01 3.4634801950e-01 5.1100000000e-04 0.0000e+00 1.0000e+00
      255  1    3    3    0    0 +4.2174552409e+01 -3.4585181950e+01 -6.6585941049e+02 6.7968270702e+02 1.2500000000e+02 0.0000e+00 0.0000e+00
      -11  1    4    4    0    0 +8.0101788113e-03 +1.1146358561e-01 -1.6871947687e+00 1.6908917004e+00 5.1100000000e-04 0.0000e+00 -1.0000e+00
      255  1    4    4    0    0 -4.2245036841e+01 +3.4573811190e+01 -1.4961400391e+03 1.5023448367e+03 1.2500000000e+02 0.0000e+00 0.0000e+00
<mgrwt>
<rscale>  0 0.29527928E+03</rscale>
<asrwt>0</asrwt>
<pdfrwt beam="1">  1        2 0.33446709E+00 0.29527928E+03</pdfrwt>
<pdfrwt beam="2">  1       -2 0.15425024E-02 0.29527928E+03</pdfrwt>
<totfact> 0.68089285E+03</totfact>
</mgrwt>
</event>
<event>
 8      1 +1.6198320e-01 2.78153200e+02 7.81860800e-03 1.09670200e-01
        2 -1    0    0  501    0 +0.0000000000e+00 +0.0000000000e+00 +6.1989697011e+01 6.1989697064e+01 2.5500000000e-03 0.0000e+00 1.0000e+00
       -2 -1    0    0    0  501 -0.0000000000e+00 -0.0000000000e+00 -3.1202452033e+02 3.1202452034e+02 2.5500000000e-03 0.0000e+00 -1.0000e+00
  1000101  2    1    2    0    0 -2.5679416572e+00 -3.3892806735e+01 -5.7290372708e+01 1.4173042211e+02 1.2509999629e+02 6.8056e+00 0.0000e+00
 -1000101  2    1    2    0    0 +2.5679416572e+00 +3.3892806735e+01 -1.9274445061e+02 2.3228379530e+02 1.2510004654e+02 1.2636e+02 0.0000e+00
       11  1    3    3    0    0 +2.9716222502e-02 -1.2506784797e-01 -5.9210576564e-02 1.4153152996e-01 5.1100000000e-04 0.0000e+00 1.0000e+00
      255  1    3    3    0    0 -2.5976578797e+00 -3.3767738887e+01 -5.7231162132e+01 1.4158889058e+02 1.2500000000e+02 0.0000e+00 0.0000e+00
      -11  1    4    4    0    0 +4.0803640347e-02 -1.1790425175e-03 -3.0191272894e-01 3.0466027675e-01 5.1100000000e-04 0.0000e+00 -1.0000e+00
      255  1    4    4    0    0 +2.5271380168e+00 +3.3893985777e+01 -1.9244253788e+02 2.3197913502e+02 1.2500000000e+02 0.0000e+00 0.0000e+00
<mgrwt>
<rscale>  0 0.27815323E+03</rscale>
<asrwt>0</asrwt>
<pdfrwt beam="1">  1        2 0.95368767E-02 0.27815323E+03</pdfrwt>
<pdfrwt beam="2">  1       -2 0.48003771E-01 0.27815323E+03</pdfrwt>
<totfact> 0.28256210E+03</totfact>
</mgrwt>
</event>
<event>
 8      1 +1.6198320e-01 4.58970200e+02 7.81860800e-03 1.02508000e-01
        2 -1    0    0  501    0 +0.0000000000e+00 +0.0000000000e+00 +2.2607029815e+01 2.2607029958e+01 2.5500000000e-03 0.0000e+00 1.0000e+00
       -2 -1    0    0    0  501 -0.0000000000e+00 -0.0000000000e+00 -2.3295149729e+03 2.3295149729e+03 2.5500000000e-03 0.0000e+00 -1.0000e+00
  1000101  2    1    2    0    0 +1.2313778440e+01 -1.1142711430e+02 -1.9547215196e+03 1.9619260666e+03 1.2510012368e+02 1.1060e+02 0.0000e+00
 -1000101  2    1    2    0    0 -1.2313778440e+01 +1.1142711430e+02 -3.5218642357e+02 3.9019593627e+02 1.2509980334e+02 4.3730e+01 0.0000e+00
       11  1    3    3    0    0 -6.3302251586e-02 -8.4629535312e-02 -6.6464375378e-01 6.7299399244e-01 5.1100000000e-04 0.0000e+00 1.0000e+00
      255  1    3    3    0    0 +1.2377080692e+01 -1.1134248477e+02 -1.9540568758e+03 1.9612530726e+03 1.2500000000e+02 0.0000e+00 0.0000e+00
      -11  1    4    4    0    0 -1.0433760258e-01 +5.5820586614e-02 -2.2080475999e-01 2.5051402427e-01 5.1100000000e-04 0.0000e+00 -1.0000e+00
      255  1    4    4    0    0 -1.2209440838e+01 +1.1137129372e+02 -3.5196561881e+02 3.8994542225e+02 1.2500000000e+02 0.0000e+00 0.0000e+00
<mgrwt>
<rscale>  0 0.45897022E+03</rscale>
<asrwt>0</asrwt>
<pdfrwt beam="1">  1        2 0.34780064E-02 0.45897022E+03</pdfrwt>
<pdfrwt beam="2">  1       -2 0.35838673E+00 0.45897022E+03</pdfrwt>
<totfact> 0.40859734E+01</totfact>
</mgrwt>
</event>
<event>
 8      1 +1.6198320e-01 2.91526100e+02 7.81860800e-03 1.08955500e-01
       -1 -1    0    0    0  501 -0.0000000000e+00 +0.0000000000e+00 +9.9654630836e+00 9.9654643580e+00 5.0400000000e-03 0.0000e+00 -1.0000e+00
        1 -1    0    0  501    0 +0.0000000000e+00 -0.0000000000e+00 -2.1320504082e+03 2.1320504083e+03 5.0400000000e-03 0.0000e+00 1.0000e+00
  1000101  2    1    2    0    0 -1.5527287113e+01 +7.3112155202e+01 -1.0373301530e+03 1.0475162457e+03 1.2509977901e+02 3.9823e+01 0.0000e+00
 -1000101  2    1    2    0    0 +1.5527287113e+01 -7.3112155202e+01 -1.0847547921e+03 1.0944996269e+03 1.2509992165e+02 3.4721e+01 0.0000e+00
       11  1    3    3    0    0 +4.5232668787e-02 +3.6562775759e-02 -1.2828981688e+00 1.2842160268e+00 5.1100000000e-04 0.0000e+00 1.0000e+00
      255  1    3    3    0    0 -1.5572519782e+01 +7.3075592426e+01 -1.0360472549e+03 1.0462320297e+03 1.2500000000e+02 0.0000e+00 0.0000e+00
      -11  1    4    4    0    0 -6.6820011926e-02 +1.6182475192e-02 -4.0751932773e-01 4.1327841716e-01 5.1100000000e-04 0.0000e+00 -1.0000e+00
      255  1    4    4    0    0 +1.5594107125e+01 -7.3128337677e+01 -1.0843472728e+03 1.0940863485e+03 1.2500000000e+02 0.0000e+00 0.0000e+00
<mgrwt>
<rscale>  0 0.29152613E+03</rscale>
<asrwt>0</asrwt>
<pdfrwt beam="1">  1        1 0.32800739E+00 0.29152613E+03</pdfrwt>
<pdfrwt beam="2">  1       -1 0.15331500E-02 0.29152613E+03</pdfrwt>
<totfact> 0.27974505E+03</totfact>
</mgrwt>
</event>
<event>
 8      1 +1.6198320e-01 2.99585400e+02 7.81860800e-03 1.08544800e-01
        2 -1    0    0  501    0 +0.0000000000e+00 +0.0000000000e+00 +5.2230490858e+01 5.2230490920e+01 2.5500000000e-03 0.0000e+00 1.0000e+00
       -2 -1    0    0    0  501 -0.0000000000e+00 -0.0000000000e+00 -4.2959312269e+02 4.2959312270e+02 2.5500000000e-03 0.0000e+00 -1.0000e+00
  1000101  2    1    2    0    0 +2.7348491545e+01 -5.1533111362e+01 -9.5119834561e+01 1.6763479221e+02 1.2510011621e+02 3.1971e+01 0.0000e+00
 -1000101  2    1    2    0    0 -2.7348491545e+01 +5.1533111362e+01 -2.8224279728e+02 3.1418882141e+02 1.2510002929e+02 6.3722e+01 0.0000e+00
       11  1    3    3    0    0 -1.0634093301e-02 -1.4069798643e-01 -1.0002355331e-01 1.7295658317e-01 5.1100000000e-04 0.0000e+00 1.0000e+00
      255  1    3    3    0    0 +2.7359125638e+01 -5.1392413376e+01 -9.5019811008e+01 1.6746183563e+02 1.2500000000e+02 0.0000e+00 0.0000e+00
      -11  1    4    4    0    0 -1.0641655733e-01 +7.5761963310e-02 -4.0077224741e-01 4.2152463057e-01 5.1100000000e-04 0.0000e+00 -1.0000e+00
      255  1    4    4    0    0 -2.7242074987e+01 +5.1457349399e+01 -2.8184202503e+02 3.1376729678e+02 1.2500000000e+02 0.0000e+00 0.0000e+00
<mgrwt>
<rscale>  0 0.29958544E+03</rscale>
<asrwt>0</asrwt>
<pdfrwt beam="1">  1        2 0.80354604E-02 0.29958544E+03</pdfrwt>
<pdfrwt beam="2">  1       -2 0.66091247E-01 0.29958544E+03</pdfrwt>
<totfact> 0.18259481E+03</totfact>
</mgrwt>
</event>
<event>
 8      1 +1.6198320e-01 2.80187300e+02 7.81860800e-03 1.09558700e-01
        2 -1    0    0  501    0 +0.0000000000e+00 +0.0000000000e+00 +2.2315317290e+02 2.2315317291e+02 2.5500000000e-03 0.0000e+00 1.0000e+00
       -2 -1    0    0    0  501 -0.0000000000e+00 -0.0000000000e+00 -8.7949587148e+01 8.7949587184e+01 2.5500000000e-03 0.0000e+00 -1.0000e+00
  1000101  2    1    2    0    0 +4.0134758847e+01 +7.4149951602e+00 +1.4231122175e+01 1.3235679466e+02 1.2510002092e+02 3.6047e+02 0.0000e+00
 -1000101  2    1    2    0    0 -4.0134758847e+01 -7.4149951602e+00 +1.2097246358e+02 1.7874596543e+02 1.2509996880e+02 3.8723e+01 0.0000e+00
       11  1    3    3    0    0 -2.8267731916e-02 +8.5146300479e-02 +2.6487079368e-02 9.3545623348e-02 5.1100000000e-04 0.0000e+00 1.0000e+00
      255  1    3    3    0    0 +4.0163026579e+01 +7.3298488598e+00 +1.4204635096e+01 1.3226324904e+02 1.2500000000e+02 0.0000e+00 0.0000e+00
      -11  1    4    4    0    0 -5.7893809258e-02 -1.0327536226e-01 +1.0295878086e-01 1.5690208818e-01 5.1100000000e-04 0.0000e+00 -1.0000e+00
      255  1    4    4    0    0 -4.0076865038e+01 -7.3117197980e+00 +1.2086950479e+02 1.7858906335e+02 1.2500000000e+02 0.0000e+00 0.0000e+00
<mgrwt>
<rscale>  0 0.28018729E+03</rscale>
<asrwt>0</asrwt>
<pdfrwt beam="1">  1        2 0.34331257E-01 0.28018729E+03</pdfrwt>
<pdfrwt beam="2">  1       -2 0.13530706E-01 0.28018729E+03</pdfrwt>
<totfact> 0.60961946E+03</totfact>
</mgrwt>
</event>
<event>
 8      1 +1.6198320e-01 4.88112500e+02 7.81860800e-03 1.01692900e-01
        2 -1    0    0  501    0 +0.0000000000e+00 +0.0000000000e+00 +1.8125021351e+03 1.8125021351e+03 2.5500000000e-03 0.0000e+00 1.0000e+00
       -2 -1    0    0    0  501 -0.0000000000e+00 -0.0000000000e+00 -3.2862561267e+01 3.2862561365e+01 2.5500000000e-03 0.0000e+00 -1.0000e+00
  1000101  2    1    2    0    0 -4.7185755490e+00 +1.7405591143e+02 +4.4899759924e+02 4.9756063361e+02 1.2510001894e+02 3.0124e+02 0.0000e+00
 -1000101  2    1    2    0    0 +4.7185755490e+00 -1.7405591143e+02 +1.3306419746e+03 1.3478040628e+03 1.2509996817e+02 9.8768e+00 0.0000e+00
       11  1    3    3    0    0 -3.4117190690e-02 -9.4699734828e-04 +1.2395169754e-02 3.6315022494e-02 5.1100000000e-04 0.0000e+00 1.0000e+00
      255  1    3    3    0    0 -4.6844583583e+00 +1.7405685843e+02 +4.4898520407e+02 4.9752431859e+02 1.2500000000e+02 0.0000e+00 0.0000e+00
      -11  1    4    4    0    0 -5.7013214485e-02 -1.8061530290e-02 +6.9385637845e-01 6.9642922149e-01 5.1100000000e-04 0.0000e+00 -1.0000e+00
      255  1    4    4    0    0 +4.7755887635e+00 -1.7403784990e+02 +1.3299481182e+03 1.3471076336e+03 1.2500000000e+02 0.0000e+00 0.0000e+00
<mgrwt>
<rscale>  0 0.48811254E+03</rscale>
<asrwt>0</asrwt>
<pdfrwt beam="1">  1        2 0.27884652E+00 0.48811254E+03</pdfrwt>
<pdfrwt beam="2">  1       -2 0.50557780E-02 0.48811254E+03</pdfrwt>
<totfact> 0.17747116E+03</totfact>
</mgrwt>
</event>
<event>
 8      1 +1.6198320e-01 4.27517700e+02 7.81860800e-03 1.03464700e-01
        2 -1    0    0  501    0 +0.0000000000e+00 +0.0000000000e+00 +4.2365669161e+02 4.2365669162e+02 2.5500000000e-03 0.0000e+00 1.0000e+00
       -2 -1    0    0    0  501 -0.0000000000e+00 -0.0000000000e+00 -1.0785349654e+02 1.0785349657e+02 2.5500000000e-03 0.0000e+00 -1.0000e+00
  1000101  2    1    2    0    0 +2.8774991385e+01 -3.4949598244e+00 -5.4554131190e+01 1.3952196220e+02 1.2509999933e+02 1.6533e+01 0.0000e+00
 -1000101  2    1    2    0    0 -2.8774991385e+01 +3.4949598244e+00 +3.7035732626e+02 3.9198822599e+02 1.2509998133e+02 4.6660e+01 0.0000e+00
       11  1    3    3    0    0 -2.9431759297e-02 -1.9927545939e-02 +5.2603241914e-02 6.3487776176e-02 5.1100000000e-04 0.0000e+00 1.0000e+00
      255  1    3    3    0    0 +2.8804423144e+01 -3.4750322785e+00 -5.4606734432e+01 1.3945847442e+02 1.2500000000e+02 0.0000e+00 0.0000e+00
      -11  1    4    4    0    0 -1.8378761470e-02 +1.0261744228e-01 +2.9425177993e-01 3.1217381288e-01 5.1100000000e-04 0.0000e+00 -1.0000e+00
      255  1    4    4    0    0 -2.8756612623e+01 +3.3923423821e+00 +3.7006307448e+02 3.9167605218e+02 1.2500000000e+02 0.0000e+00 0.0000e+00
<mgrwt>
<rscale>  0 0.42751774E+03</rscale>
<asrwt>0</asrwt>
<pdfrwt beam="1">  1        2 0.65177953E-01 0.42751774E+03</pdfrwt>
<pdfrwt beam="2">  1       -2 0.16592846E-01 0.42751774E+03</pdfrwt>
<totfact> 0.21798257E+03</totfact>
</mgrwt>
</event>
<event>
 8      1 +1.6198320e-01 5.02024700e+02 7.81860800e-03 1.01325200e-01
       -2 -1    0    0    0  501 -0.0000000000e+00 +0.0000000000e+00 +5.5724268909e+01 5.5724268968e+01 2.5500000000e-03 0.0000e+00 -1.0000e+00
        2 -1    0    0  501    0 +0.0000000000e+00 -0.0000000000e+00 -1.1306959215e+03 1.1306959215e+03 2.5500000000e-03 0.0000e+00 1.0000e+00
  1000101  2    1    2    0    0 +1.7093251801e+02 +1.3450605960e+02 -5.5372675266e+02 6.0792555204e+02 1.2510137659e+02 3.2687e+01 0.0000e+00
 -1000101  2    1    2    0    0 -1.7093251801e+02 -1.3450605960e+02 -5.2124489994e+02 5.7849463844e+02 1.2509994089e+02 1.1326e+02 0.0000e+00
       11  1    3    3    0    0 -2.3975756528e-02 -3.5401534032e-04 -1.6642733951e-02 2.9192532320e-02 5.1100000000e-04 0.0000e+00 1.0000e+00
      255  1    3    3    0    0 +1.7095649377e+02 +1.3450641361e+02 -5.5371010993e+02 6.0789635951e+02 1.2500000000e+02 0.0000e+00 0.0000e+00
      -11  1    4    4    0    0 -1.3079733085e-01 -4.7812053092e-03 -1.7008444098e-01 2.1461542318e-01 5.1100000000e-04 0.0000e+00 -1.0000e+00
      255  1    4    4    0    0 -1.7080172068e+02 -1.3450127839e+02 -5.2107481549e+02 5.7828002302e+02 1.2500000000e+02 0.0000e+00 0.0000e+00
<mgrwt>
<rscale>  0 0.50202472E+03</rscale>
<asrwt>0</asrwt>
<pdfrwt beam="1">  1        2 0.17395320E+00 0.50202472E+03</pdfrwt>
<pdfrwt beam="2">  1       -2 0.85729653E-02 0.50202472E+03</pdfrwt>
<totfact> 0.18540937E+03</totfact>
</mgrwt>
</event>
<event>
 8      1 +1.6198320e-01 3.54635200e+02 7.81860800e-03 1.06072800e-01
       -2 -1    0    0    0  501 -0.0000000000e+00 +0.0000000000e+00 +1.1435543216e+02 1.1435543219e+02 2.5500000000e-03 0.0000e+00 -1.0000e+00
        2 -1    0    0  501    0 +0.0000000000e+00 -0.0000000000e+00 -2.7494565303e+02 2.7494565304e+02 2.5500000000e-03 0.0000e+00 1.0000e+00
  1000101  2    1    2    0    0 -4.9747304553e+01 +1.1537554955e+02 -8.2806060068e+01 1.9568642929e+02 1.2510005308e+02 1.1887e+02 0.0000e+00
 -1000101  2    1    2    0    0 +4.9747304553e+01 -1.1537554955e+02 -7.7784160800e+01 1.9361465594e+02 1.2509975051e+02 9.3256e+01 0.0000e+00
       11  1    3    3    0    0 -4.2037646994e-02 +5.4523263810e-02 -1.6058759972e-01 1.7472432105e-01 5.1100000000e-04 0.0000e+00 1.0000e+00
      255  1    3    3    0    0 -4.9705266906e+01 +1.1532102629e+02 -8.2645472468e+01 1.9551170497e+02 1.2500000000e+02 0.0000e+00 0.0000e+00
      -11  1    4    4    0    0 +1.4275148220e-02 -1.9914841658e-01 -4.4038009353e-02 2.0445899117e-01 5.1100000000e-04 0.0000e+00 -1.0000e+00
      255  1    4    4    0    0 +4.9733029405e+01 -1.1517640114e+02 -7.7740122790e+01 1.9341019695e+02 1.2500000000e+02 0.0000e+00 0.0000e+00
<mgrwt>
<rscale>  0 0.35463519E+03</rscale>
<asrwt>0</asrwt>
<pdfrwt beam="1">  1        2 0.42299331E-01 0.35463519E+03</pdfrwt>
<pdfrwt beam="2">  1       -2 0.17593143E-01 0.35463519E+03</pdfrwt>
<totfact> 0.31599480E+03</totfact>
</mgrwt>
</event>
<event>
 8      1 +1.6198320e-01 3.88186400e+02 7.81860800e-03 1.04794900e-01
       -2 -1    0    0    0  501 -0.0000000000e+00 +0.0000000000e+00 +2.7791336569e+01 2.7791336686e+01 2.5500000000e-03 0.0000e+00 -1.0000e+00
        2 -1    0    0  501    0 +0.0000000000e+00 -0.0000000000e+00 -1.3555364550e+03 1.3555364550e+03 2.5500000000e-03 0.0000e+00 1.0000e+00
  1000101  2    1    2    0    0 +1.4376640053e+01 -1.1604597720e+02 -3.3826300332e+02 3.7913745492e+02 1.2509993489e+02 8.2387e+01 0.0000e+00
 -1000101  2    1    2    0    0 -1.4376640053e+01 +1.1604597720e+02 -9.8948211507e+02 1.0041903367e+03 1.2510003886e+02 1.9465e+02 0.0000e+00
       11  1    3    3    0    0 +1.0134794716e-01 -4.2745125997e-02 -2.4048136169e-01 2.6444299694e-01 5.1100000000e-04 0.0000e+00 1.0000e+00
      255  1    3    3    0    0 +1.4275292105e+01 -1.1600323207e+02 -3.3802252196e+02 3.7887301192e+02 1.2500000000e+02 0.0000e+00 0.0000e+00
      -11  1    4    4    0    0 +3.4740096196e-02 +1.8674351400e-01 -8.3714347901e-01 8.5842266971e-01 5.1100000000e-04 0.0000e+00 -1.0000e+00
      255  1    4    4    0    0 -1.4411380149e+01 +1.1585923368e+02 -9.8864497159e+02 1.0033319141e+03 1.2500000000e+02 0.0000e+00 0.0000e+00
<mgrwt>
<rscale>  0 0.38818640E+03</rscale>
<asrwt>0</asrwt>
<pdfrwt beam="1">  1        2 0.20854402E+00 0.38818640E+03</pdfrwt>
<pdfrwt beam="2">  1       -2 0.42755913E-02 0.38818640E+03</pdfrwt>
<totfact> 0.40728247E+03</totfact>
</mgrwt>
</event>
<event>
 8      1 +1.6198320e-01 4.40933400e+02 7.81860800e-03 1.03046100e-01
        1 -1    0    0  501    0 +0.0000000000e+00 +0.0000000000e+00 +1.5874904101e+03 1.5874904101e+03 5.0400000000e-03 0.0000e+00 1.0000e+00
       -1 -1    0    0    0  501 -0.0000000000e+00 -0.0000000000e+00 -3.0617857844e+01 3.0617858259e+01 5.0400000000e-03 0.0000e+00 -1.0000e+00
  1000101  2    1    2    0    0 +1.4111155449e+02 -1.9169022567e+01 +1.1915968580e+03 1.2065790475e+03 1.2509997447e+02 1.1451e+02 0.0000e+00
 -1000101  2    1    2    0    0 -1.4111155449e+02 +1.9169022567e+01 +3.6527569423e+02 4.1152922085e+02 1.2510013822e+02 6.1230e+01 0.0000e+00
       11  1    3    3    0    0 -7.3877113574e-03 +5.3185836931e-02 +2.6831873353e-01 2.7363938937e-01 5.1100000000e-04 0.0000e+00 1.0000e+00
      255  1    3    3    0    0 +1.4111894220e+02 -1.9222208404e+01 +1.1913285393e+03 1.2063054081e+03 1.2500000000e+02 0.0000e+00 0.0000e+00
      -11  1    4    4    0    0 -1.3856654435e-01 +1.1363614746e-01 +2.9769476754e-01 3.4747128941e-01 5.1100000000e-04 0.0000e+00 -1.0000e+00
      255  1    4    4    0    0 -1.4097298794e+02 +1.9055386419e+01 +3.6497799947e+02 4.1118174957e+02 1.2500000000e+02 0.0000e+00 0.0000e+00
<mgrwt>
<rscale>  0 0.44093336E+03</rscale>
<asrwt>0</asrwt>
<pdfrwt beam="1">  1        1 0.24422931E+00 0.44093336E+03</pdfrwt>
<pdfrwt beam="2">  1       -1 0.47104393E-02 0.44093336E+03</pdfrwt>
<totfact> 0.11956029E+03</totfact>
</mgrwt>
</event>
<event>
 8      1 +1.6198320e-01 2.85653900e+02 7.81860800e-03 1.09264000e-01
       -2 -1    0    0    0  501 -0.0000000000e+00 +0.0000000000e+00 +1.4139254815e+01 1.4139255045e+01 2.5500000000e-03 0.0000e+00 -1.0000e+00
        2 -1    0    0  501    0 +0.0000000000e+00 -0.0000000000e+00 -1.4427585638e+03 1.4427585638e+03 2.5500000000e-03 0.0000e+00 1.0000e+00
  1000101  2    1    2    0    0 +2.3726458768e+01 -5.9551618044e+01 -5.8526338255e+02 6.0190743043e+02 1.2509991126e+02 4.7100e+02 0.0000e+00
 -1000101  2    1    2    0    0 -2.3726458768e+01 +5.9551618044e+01 -8.4335592646e+02 8.5499038845e+02 1.2509998231e+02 1.4989e+01 0.0000e+00
       11  1    3    3    0    0 +8.7550386581e-02 -4.5361831425e-03 -6.9151863692e-01 6.9705375222e-01 5.1100000000e-04 0.0000e+00 1.0000e+00
      255  1    3    3    0    0 +2.3638908381e+01 -5.9547081860e+01 -5.8457186392e+02 6.0121037668e+02 1.2500000000e+02 0.0000e+00 0.0000e+00
      -11  1    4    4    0    0 -7.4268915726e-02 +1.6321850989e-02 -1.1201768066e+00 1.1227549216e+00 5.1100000000e-04 0.0000e+00 -1.0000e+00
      255  1    4    4    0    0 -2.3652189852e+01 +5.9535296193e+01 -8.4223574966e+02 8.5386763352e+02 1.2500000000e+02 0.0000e+00 0.0000e+00
<mgrwt>
<rscale>  0 0.28565385E+03</rscale>
<asrwt>0</asrwt>
<pdfrwt beam="1">  1        2 0.22196274E+00 0.28565385E+03</pdfrwt>
<pdfrwt beam="2">  1       -2 0.21752711E-02 0.28565385E+03</pdfrwt>
<totfact> 0.10011954E+04</totfact>
</mgrwt>
</event>
<event>
 8      1 +1.6198320e-01 4.88988200e+02 7.81860800e-03 1.01669400e-01
       -2 -1    0    0    0  501 -0.0000000000e+00 +0.0000000000e+00 +5.8545980331e+01 5.8545980387e+01 2.5500000000e-03 0.0000e+00 1.0000e+00
        2 -1    0    0  501    0 +0.0000000000e+00 -0.0000000000e+00 -1.0210328548e+03 1.0210328548e+03 2.5500000000e-03 0.0000e+00 -1.0000e+00
  1000101  2    1    2    0    0 -1.6261022375e+02 +6.6798137454e+01 -7.3512182008e+02 7.6613194724e+02 1.2509993684e+02 1.6016e+01 0.0000e+00
 -1000101  2    1    2    0    0 +1.6261022375e+02 -6.6798137454e+01 -2.2736505436e+02 3.1344688792e+02 1.2509999026e+02 2.3722e+02 0.0000e+00
       11  1    3    3    0    0 -2.0943203622e-01 +2.0912171940e-02 -5.0388309211e-01 5.4607465457e-01 5.1100000000e-04 0.0000e+00 1.0000e+00
      255  1    3    3    0    0 -1.6240079172e+02 +6.6777225282e+01 -7.3461793699e+02 7.6558587259e+02 1.2500000000e+02 0.0000e+00 0.0000e+00
      -11  1    4    4    0    0 +1.7340979749e-01 -7.2062652305e-03 -3.1652487517e-01 3.6098635133e-01 5.1100000000e-04 0.0000e+00 -1.0000e+00
      255  1    4    4    0    0 +1.6243681396e+02 -6.6790931189e+01 -2.2704852948e+02 3.1308590156e+02 1.2500000000e+02 0.0000e+00 0.0000e+00
<mgrwt>
<rscale>  0 0.48898822E+03</rscale>
<asrwt>0</asrwt>
<pdfrwt beam="1">  1        2 0.15708196E+00 0.48898822E+03</pdfrwt>
<pdfrwt beam="2">  1       -2 0.90070746E-02 0.48898822E+03</pdfrwt>
<totfact> 0.19982446E+03</totfact>
</mgrwt>
</event>
<event>
 8      1 +1.6198320e-01 2.90569700e+02 7.81860800e-03 1.09005200e-01
        1 -1    0    0  501    0 +0.0000000000e+00 +0.0000000000e+00 +1.3729191207e+03 1.3729191207e+03 5.0400000000e-03 0.0000e+00 -1.0000e+00
       -1 -1    0    0    0  501 -0.0000000000e+00 -0.0000000000e+00 -1.5374314936e+01 1.5374315762e+01 5.0400000000e-03 0.0000e+00 1.0000e+00
  1000101  2    1    2    0    0 -4.4236629491e+01 +5.0729665461e+01 +8.2426573507e+02 8.3641759006e+02 1.2509997846e+02 1.2054e+02 0.0000e+00
 -1000101  2    1    2    0    0 +4.4236629491e+01 -5.0729665461e+01 +5.3327907071e+02 5.5187584643e+02 1.2509997707e+02 2.1149e+02 0.0000e+00
       11  1    3    3    0    0 -4.7576543370e-02 +1.4737746304e-01 +8.2259563377e-01 8.3704688155e-01 5.1100000000e-04 0.0000e+00 1.0000e+00
      255  1    3    3    0    0 -4.4189052948e+01 +5.0582287998e+01 +8.2344313944e+02 8.3558054318e+02 1.2500000000e+02 0.0000e+00 0.0000e+00
      -11  1    4    4    0    0 +9.4322472250e-02 +1.8348376818e-02 +6.3055375558e-01 6.3783359233e-01 5.1100000000e-04 0.0000e+00 -1.0000e+00
      255  1    4    4    0    0 +4.4142307019e+01 -5.0748013837e+01 +5.3264851696e+02 5.5123801284e+02 1.2500000000e+02 0.0000e+00 0.0000e+00
<mgrwt>
<rscale>  0 0.29056973E+03</rscale>
<asrwt>0</asrwt>
<pdfrwt beam="1">  1        1 0.21121835E+00 0.29056973E+03</pdfrwt>
<pdfrwt beam="2">  1       -1 0.23652790E-02 0.29056973E+03</pdfrwt>
<totfact> 0.46693204E+03</totfact>
</mgrwt>
</event>
<event>
 8      1 +1.6198320e-01 2.90536000e+02 7.81860800e-03 1.09007000e-01
        1 -1    0    0  501    0 +0.0000000000e+00 +0.0000000000e+00 +2.1572609021e+03 2.1572609021e+03 5.0400000000e-03 0.0000e+00 1.0000e+00
       -1 -1    0    0    0  501 -0.0000000000e+00 -0.0000000000e+00 -9.7822169203e+00 9.7822182186e+00 5.0400000000e-03 0.0000e+00 -1.0000e+00
  1000101  2    1    2    0    0 +5.7470952419e+01 -4.3686194723e+01 +1.1896164894e+03 1.1983525642e+03 1.2510028906e+02 8.2627e+01 0.0000e+00
 -1000101  2    1    2    0    0 -5.7470952419e+01 +4.3686194723e+01 +9.5786219579e+02 9.6869055612e+02 1.2510001364e+02 5.4295e+01 0.0000e+00
       11  1    3    3    0    0 +1.2911612978e-01 -4.2629944604e-02 +6.9777505445e-01 7.1089983463e-01 5.1100000000e-04 0.0000e+00 1.0000e+00
      255  1    3    3    0    0 +5.7341836289e+01 -4.3643564778e+01 +1.1889187143e+03 1.1976416644e+03 1.2500000000e+02 0.0000e+00 0.0000e+00
      -11  1    4    4    0    0 -9.7730400971e-02 +1.2559528081e-01 +1.3346032342e+00 1.3440578335e+00 5.1100000000e-04 0.0000e+00 -1.0000e+00
      255  1    4    4    0    0 -5.7373222018e+01 +4.3560599442e+01 +9.5652759256e+02 9.6734649829e+02 1.2500000000e+02 0.0000e+00 0.0000e+00
<mgrwt>
<rscale>  0 0.29053603E+03</rscale>
<asrwt>0</asrwt>
<pdfrwt beam="1">  1        1 0.33188665E+00 0.29053603E+03</pdfrwt>
<pdfrwt beam="2">  1       -1 0.15049549E-02 0.29053603E+03</pdfrwt>
<totfact> 0.27674090E+03</totfact>
</mgrwt>
</event>
<event>
 8      1 +1.6198320e-01 3.68989200e+02 7.81860800e-03 1.05508000e-01
        2 -1    0    0  501    0 +0.0000000000e+00 +0.0000000000e+00 +1.7399852605e+02 1.7399852607e+02 2.5500000000e-03 0.0000e+00 1.0000e+00
       -2 -1    0    0    0  501 -0.0000000000e+00 -0.0000000000e+00 -1.9562381120e+02 1.9562381122e+02 2.5500000000e-03 0.0000e+00 -1.0000e+00
  1000101  2    1    2    0    0 -5.0149308092e+01 -1.1895374796e+01 +1.1482904988e+02 1.7746032130e+02 1.2509996761e+02 4.8237e+00 0.0000e+00
 -1000101  2    1    2    0    0 +5.0149308092e+01 +1.1895374796e+01 -1.3645433503e+02 1.9216201599e+02 1.2509996721e+02 1.4853e+02 0.0000e+00
       11  1    3    3    0    0 +1.1428707749e-02 -2.5238858547e-02 +1.8952901095e-01 1.9154404834e-01 5.1100000000e-04 0.0000e+00 1.0000e+00
      255  1    3    3    0    0 -5.0160736800e+01 -1.1870135938e+01 +1.1463952087e+02 1.7726877725e+02 1.2500000000e+02 0.0000e+00 0.0000e+00
      -11  1    4    4    0    0 +1.1320520714e-01 -4.5313242029e-02 -1.9698059355e-01 2.3166856537e-01 5.1100000000e-04 0.0000e+00 -1.0000e+00
      255  1    4    4    0    0 +5.0036102885e+01 +1.1940688038e+01 -1.3625735444e+02 1.9193034742e+02 1.2500000000e+02 0.0000e+00 0.0000e+00
<mgrwt>
<rscale>  0 0.36898919E+03</rscale>
<asrwt>0</asrwt>
<pdfrwt beam="1">  1        2 0.26769004E-01 0.36898919E+03</pdfrwt>
<pdfrwt beam="2">  1       -2 0.30095971E-01 0.36898919E+03</pdfrwt>
<totfact> 0.20363218E+03</totfact>
</mgrwt>
</event>
<event>
 8      1 +1.6198320e-01 3.55866100e+02 7.81860800e-03 1.06023300e-01
       -2 -1    0    0    0  501 -0.0000000000e+00 +0.0000000000e+00 +5.8241896922e+01 5.8241896978e+01 2.5500000000e-03 0.0000e+00 -1.0000e+00
        2 -1    0    0  501    0 +0.0000000000e+00 -0.0000000000e+00 -5.4359799298e+02 5.4359799299e+02 2.5500000000e-03 0.0000e+00 1.0000e+00
  1000101  2    1    2    0    0 +3.8901745413e+01 +2.1658983903e+01 -4.4298113420e+02 4.6245516453e+02 1.2510010614e+02 1.6246e+02 0.0000e+00
 -1000101  2    1    2    0    0 -3.8901745413e+01 -2.1658983903e+01 -4.2374961854e+01 1.3938472544e+02 1.2509998766e+02 9.4606e+01 0.0000e+00
       11  1    3    3    0    0 +7.4581248877e-02 -7.2072628472e-02 -3.8868654232e-01 4.0228636040e-01 5.1100000000e-04 0.0000e+00 1.0000e+00
      255  1    3    3    0    0 +3.8827164164e+01 +2.1731056531e+01 -4.4259244766e+02 4.6205287817e+02 1.2500000000e+02 0.0000e+00 0.0000e+00
      -11  1    4    4    0    0 -4.5034510531e-02 -4.9265036792e-02 +6.1978558800e-02 9.1086518550e-02 5.1100000000e-04 0.0000e+00 -1.0000e+00
      255  1    4    4    0    0 -3.8856710903e+01 -2.1609718866e+01 -4.2436940413e+01 1.3929363892e+02 1.2500000000e+02 0.0000e+00 0.0000e+00
<mgrwt>
<rscale>  0 0.35586615E+03</rscale>
<asrwt>0</asrwt>
<pdfrwt beam="1">  1        2 0.83630457E-01 0.35586615E+03</pdfrwt>
<pdfrwt beam="2">  1       -2 0.89602922E-02 0.35586615E+03</pdfrwt>
<totfact> 0.44920658E+03</totfact>
</mgrwt>
</event>
<event>
 8      1 +1.6198320e-01 3.31215600e+02 7.81860800e-03 1.07060000e-01
       -2 -1    0    0    0  501 -0.0000000000e+00 +0.0000000000e+00 +2.0229944998e+01 2.0229945158e+01 2.5500000000e-03 0.0000e+00 -1.0000e+00
        2 -1    0    0  501    0 +0.0000000000e+00 -0.0000000000e+00 -1.3557100088e+03 1.3557100088e+03 2.5500000000e-03 0.0000e+00 1.0000e+00
  1000101  2    1    2    0    0 +5.2852509021e+01 -8.9095574932e+01 -8.0200253972e+02 8.1828447371e+02 1.2509994806e+02 9.2092e+00 0.0000e+00
 -1000101  2    1    2    0    0 -5.2852509021e+01 +8.9095574932e+01 -5.3347752404e+02 5.5765548021e+02 1.2509978727e+02 6.6869e+01 0.0000e+00
       11  1    3    3    0    0 +1.1785430109e-01 -5.4660228367e-02 -1.0450103278e+00 1.0530547105e+00 5.1100000000e-04 0.0000e+00 1.0000e+00
      255  1    3    3    0    0 +5.2734654719e+01 -8.9040914703e+01 -8.0095752940e+02 8.1723141900e+02 1.2500000000e+02 0.0000e+00 0.0000e+00
      -11  1    4    4    0    0 +1.4803928647e-02 +1.4277778029e-01 -6.4705212542e-01 6.6278304518e-01 5.1100000000e-04 0.0000e+00 -1.0000e+00
      255  1    4    4    0    0 -5.2867312949e+01 +8.8952797151e+01 -5.3283047191e+02 5.5699269717e+02 1.2500000000e+02 0.0000e+00 0.0000e+00
<mgrwt>
<rscale>  0 0.33121557E+03</rscale>
<asrwt>0</asrwt>
<pdfrwt beam="1">  1        2 0.20857070E+00 0.33121557E+03</pdfrwt>
<pdfrwt beam="2">  1       -2 0.31123003E-02 0.33121557E+03</pdfrwt>
<totfact> 0.65721533E+03</totfact>
</mgrwt>
</event>
<event>
 8      1 +1.6198320e-01 2.94569100e+02 7.81860800e-03 1.08798700e-01
       -4 -1    0    0    0  501 -0.0000000000e+00 +0.0000000000e+00 +7.9215564490e+01 7.9225744285e+01 1.2700000000e+00 0.0000e+00 -1.0000e+00
        4 -1    0    0  501    0 +0.0000000000e+00 -0.0000000000e+00 -2.7381514585e+02 2.7381809107e+02 1.2700000000e+00 0.0000e+00 1.0000e+00
  1000101  2    1    2    0    0 +3.4158097601e+01 -6.5543933944e+01 -1.2616230722e+02 1.9243106545e+02 1.2509997713e+02 1.0710e+02 0.0000e+00
 -1000101  2    1    2    0    0 -3.4158097601e+01 +6.5543933944e+01 -6.8437274134e+01 1.6061276990e+02 1.2510003379e+02 1.6628e+02 0.0000e+00
       11  1    3    3    0    0 -5.7528516219e-02 +2.2572435515e-02 -4.3326215015e-02 7.5474943204e-02 5.1100000000e-04 0.0000e+00 1.0000e+00
      255  1    3    3    0    0 +3.4215626117e+01 -6.5566506379e+01 -1.2611898101e+02 1.9235559051e+02 1.2500000000e+02 0.0000e+00 0.0000e+00
      -11  1    4    4    0    0 +4.1155050495e-02 -2.3193234336e-02 +1.9806755828e-02 5.1227268110e-02 5.1100000000e-04 0.0000e+00 -1.0000e+00
      255  1    4    4    0    0 -3.4199252652e+01 +6.5567127178e+01 -6.8457080890e+01 1.6056154263e+02 1.2500000000e+02 0.0000e+00 0.0000e+00
<mgrwt>
<rscale>  0 0.29456910E+03</rscale>
<asrwt>0</asrwt>
<pdfrwt beam="1">  1        4 0.42126416E-01 0.29456910E+03</pdfrwt>
<pdfrwt beam="2">  1       -4 0.12188020E-01 0.29456910E+03</pdfrwt>
<totfact> 0.56117846E+02</totfact>
</mgrwt>
</event>
<event>
 8      1 +1.6198320e-01 2.75334100e+02 7.81860800e-03 1.09826500e-01
        2 -1    0    0  501    0 +0.0000000000e+00 +0.0000000000e+00 +2.3286515721e+03 2.3286515721e+03 2.5500000000e-03 0.0000e+00 1.0000e+00
       -2 -1    0    0    0  501 -0.0000000000e+00 -0.0000000000e+00 -8.1387100371e+00 8.1387104366e+00 2.5500000000e-03 0.0000e+00 -1.0000e+00
  1000101  2    1    2    0    0 -2.7792773533e+01 +2.2662792965e+01 +1.5413414156e+03 1.5468255971e+03 1.2510007226e+02 2.8230e+02 0.0000e+00
 -1000101  2    1    2    0    0 +2.7792773533e+01 -2.2662792965e+01 +7.7917144645e+02 7.8996468539e+02 1.2510004295e+02 7.6699e+01 0.0000e+00
       11  1    3    3    0    0 -1.1672719539e-01 +5.0531209309e-02 +1.2257245468e+00 1.2323066043e+00 5.1100000000e-04 0.0000e+00 1.0000e+00
      255  1    3    3    0    0 -2.7676046337e+01 +2.2612261756e+01 +1.5401156911e+03 1.5455932905e+03 1.2500000000e+02 0.0000e+00 0.0000e+00
      -11  1    4    4    0    0 +8.3189661415e-03 -4.7368185652e-03 -5.3566805153e-03 1.0981702779e-02 5.1100000000e-04 0.0000e+00 -1.0000e+00
      255  1    4    4    0    0 +2.7784454567e+01 -2.2658056147e+01 +7.7917680313e+02 7.8995370368e+02 1.2500000000e+02 0.0000e+00 0.0000e+00
<mgrwt>
<rscale>  0 0.27533413E+03</rscale>
<asrwt>0</asrwt>
<pdfrwt beam="1">  1        2 0.35825403E+00 0.27533413E+03</pdfrwt>
<pdfrwt beam="2">  1       -2 0.12521095E-02 0.27533413E+03</pdfrwt>
<totfact> 0.76351312E+03</totfact>
</mgrwt>
</event>
<event>
 8      1 +1.6198320e-01 3.94039700e+02 7.81860800e-03 1.04586300e-01
        2 -1    0    0  501    0 +0.0000000000e+00 +0.0000000000e+00 +1.6256902441e+02 1.6256902443e+02 2.5500000000e-03 0.0000e+00 1.0000e+00
       -2 -1    0    0    0  501 -0.0000000000e+00 -0.0000000000e+00 -2.3877137096e+02 2.3877137097e+02 2.5500000000e-03 0.0000e+00 -1.0000e+00
  1000101  2    1    2    0    0 +7.7318633980e+01 -7.9324059771e+00 +9.5188442133e+01 1.7536261210e+02 1.2510040759e+02 5.1559e+00 0.0000e+00
 -1000101  2    1    2    0    0 -7.7318633980e+01 +7.9324059771e+00 -1.7139078868e+02 2.2597778330e+02 1.2510020733e+02 7.7182e+01 0.0000e+00
       11  1    3    3    0    0 +1.0547209443e-01 +4.3309782313e-02 +1.8255713279e-01 2.1523816530e-01 5.1100000000e-04 0.0000e+00 1.0000e+00
      255  1    3    3    0    0 +7.7213161886e+01 -7.9757157594e+00 +9.5005885000e+01 1.7514737393e+02 1.2500000000e+02 0.0000e+00 0.0000e+00
      -11  1    4    4    0    0 -1.2897991305e-01 +5.3357208140e-04 -3.0360953808e-01 3.2987136190e-01 5.1100000000e-04 0.0000e+00 -1.0000e+00
      255  1    4    4    0    0 -7.7189654067e+01 +7.9318724050e+00 -1.7108717914e+02 2.2564791194e+02 1.2500000000e+02 0.0000e+00 0.0000e+00
<mgrwt>
<rscale>  0 0.39403974E+03</rscale>
<asrwt>0</asrwt>
<pdfrwt beam="1">  1        2 0.25010619E-01 0.39403974E+03</pdfrwt>
<pdfrwt beam="2">  1       -2 0.36734057E-01 0.39403974E+03</pdfrwt>
<totfact> 0.15179441E+03</totfact>
</mgrwt>
</event>
<event>
 8      1 +1.6198320e-01 3.34444200e+02 7.81860800e-03 1.06918700e-01
       -3 -1    0    0    0  501 -0.0000000000e+00 +0.0000000000e+00 +7.3652115657e+01 7.3652184908e+01 1.0100000000e-01 0.0000e+00 -1.0000e+00
        3 -1    0    0  501    0 +0.0000000000e+00 -0.0000000000e+00 -3.7966615504e+02 3.7966616847e+02 1.0100000000e-01 0.0000e+00 1.0000e+00
  1000101  2    1    2    0    0 +4.4720959724e+01 -1.5523212758e+01 -1.6974240947e+01 1.3482980593e+02 1.2510002933e+02 1.8689e+01 0.0000e+00
 -1000101  2    1    2    0    0 -4.4720959724e+01 +1.5523212758e+01 -2.8903979843e+02 3.1848854746e+02 1.2510002162e+02 8.0022e+01 0.0000e+00
       11  1    3    3    0    0 +1.0099274547e-02 -1.0846400274e-01 -2.8664467207e-03 1.0897207383e-01 5.1100000000e-04 0.0000e+00 1.0000e+00
      255  1    3    3    0    0 +4.4710860449e+01 -1.5414748755e+01 -1.6971374500e+01 1.3472083385e+02 1.2500000000e+02 0.0000e+00 0.0000e+00
      -11  1    4    4    0    0 +6.9840932295e-02 -2.0102033895e-03 -1.5768752531e-01 1.7247438506e-01 5.1100000000e-04 0.0000e+00 -1.0000e+00
      255  1    4    4    0    0 -4.4790800656e+01 +1.5525222961e+01 -2.8888211091e+02 3.1831607307e+02 1.2500000000e+02 0.0000e+00 0.0000e+00
<mgrwt>
<rscale>  0 0.33444422E+03</rscale>
<asrwt>0</asrwt>
<pdfrwt beam="1">  1        3 0.58410183E-01 0.33444422E+03</pdfrwt>
<pdfrwt beam="2">  1       -3 0.11331101E-01 0.33444422E+03</pdfrwt>
<totfact> 0.44989455E+02</totfact>
</mgrwt>
</event>
<event>
 8      1 +1.6198320e-01 3.15136300e+02 7.81860800e-03 1.07791000e-01
       -1 -1    0    0    0  501 -0.0000000000e+00 +0.0000000000e+00 +4.2063918671e+01 4.2063918973e+01 5.0400000000e-03 0.0000e+00 1.0000e+00
        1 -1    0    0  501    0 +0.0000000000e+00 -0.0000000000e+00 -5.9023792825e+02 5.9023792827e+02 5.0400000000e-03 0.0000e+00 -1.0000e+00
  1000101  2    1    2    0    0 -2.1626369573e+01 +9.2808286234e+01 -2.9380722566e+02 3.3324728063e+02 1.2509990545e+02 5.3577e+00 0.0000e+00
 -1000101  2    1    2    0    0 +2.1626369573e+01 -9.2808286234e+01 -2.5436678392e+02 2.9905456661e+02 1.2510034051e+02 2.1818e+01 0.0000e+00
       11  1    3    3    0    0 -3.6894987802e-03 +1.3778820752e-01 -1.2390378417e-01 1.8534187705e-01 5.1100000000e-04 0.0000e+00 1.0000e+00
      255  1    3    3    0    0 -2.1622680074e+01 +9.2670498026e+01 -2.9368332188e+02 3.3306193875e+02 1.2500000000e+02 0.0000e+00 0.0000e+00
      -11  1    4    4    0    0 -5.6514284041e-02 -1.5062454384e-01 -2.6611203628e-01 3.1096220749e-01 5.1100000000e-04 0.0000e+00 -1.0000e+00
      255  1    4    4    0    0 +2.1682883857e+01 -9.2657661690e+01 -2.5410067188e+02 2.9874360440e+02 1.2500000000e+02 0.0000e+00 0.0000e+00
<mgrwt>
<rscale>  0 0.31513629E+03</rscale>
<asrwt>0</asrwt>
<pdfrwt beam="1">  1        1 0.90805829E-01 0.31513629E+03</pdfrwt>
<pdfrwt beam="2">  1       -1 0.64713726E-02 0.31513629E+03</pdfrwt>
<totfact> 0.42900947E+03</totfact>
</mgrwt>
</event>
<event>
 8      1 +1.6198320e-01 3.55645000e+02 7.81860800e-03 1.06032200e-01
        2 -1    0    0  501    0 +0.0000000000e+00 +0.0000000000e+00 +3.6723392699e+01 3.6723392787e+01 2.5500000000e-03 0.0000e+00 1.0000e+00
       -2 -1    0    0    0  501 -0.0000000000e+00 -0.0000000000e+00 -8.6105454450e+02 8.6105454451e+02 2.5500000000e-03 0.0000e+00 -1.0000e+00
  1000101  2    1    2    0    0 +3.0799859117e+00 +4.0066350460e+01 -7.1462675456e+02 7.2660597518e+02 1.2510014425e+02 6.6722e+01 0.0000e+00
 -1000101  2    1    2    0    0 -3.0799859117e+00 -4.0066350460e+01 -1.0970439725e+02 1.7117196211e+02 1.2509990841e+02 5.0876e+00 0.0000e+00
       11  1    3    3    0    0 +7.8915450030e-02 +9.6194912906e-02 -8.1385598978e-01 8.2331217818e-01 5.1100000000e-04 0.0000e+00 1.0000e+00
      255  1    3    3    0    0 +3.0010704617e+00 +3.9970155548e+01 -7.1381289857e+02 7.2578266300e+02 1.2500000000e+02 0.0000e+00 0.0000e+00
      -11  1    4    4    0    0 +3.8863933870e-03 +6.4672948984e-03 -1.9844278795e-01 1.9858683533e-01 5.1100000000e-04 0.0000e+00 -1.0000e+00
      255  1    4    4    0    0 -3.0838723051e+00 -4.0072817755e+01 -1.0950595446e+02 1.7097337528e+02 1.2500000000e+02 0.0000e+00 0.0000e+00
<mgrwt>
<rscale>  0 0.35564502E+03</rscale>
<asrwt>0</asrwt>
<pdfrwt beam="1">  1        2 0.56497534E-02 0.35564502E+03</pdfrwt>
<pdfrwt beam="2">  1       -2 0.13246991E+00 0.35564502E+03</pdfrwt>
<totfact> 0.58457859E+02</totfact>
</mgrwt>
</event>
<event>
 8      1 +1.6198320e-01 2.87263500e+02 7.81860800e-03 1.09178700e-01
       -2 -1    0    0    0  501 -0.0000000000e+00 +0.0000000000e+00 +1.1089102461e+02 1.1089102464e+02 2.5500000000e-03 0.0000e+00 -1.0000e+00
        2 -1    0    0  501    0 +0.0000000000e+00 -0.0000000000e+00 -1.8603924722e+02 1.8603924723e+02 2.5500000000e-03 0.0000e+00 1.0000e+00
  1000101  2    1    2    0    0 +4.0583069272e+01 -5.1834240792e+01 -1.1296188399e+01 1.4181461091e+02 1.2509998387e+02 4.7509e+01 0.0000e+00
 -1000101  2    1    2    0    0 -4.0583069272e+01 +5.1834240792e+01 -6.3852034203e+01 1.5511566097e+02 1.2510000789e+02 2.1793e+02 0.0000e+00
       11  1    3    3    0    0 +1.3235930724e-01 -4.4281851402e-02 +1.8315929475e-02 1.4076790462e-01 5.1100000000e-04 0.0000e+00 1.0000e+00
      255  1    3    3    0    0 +4.0450709964e+01 -5.1789958941e+01 -1.1314504329e+01 1.4167384301e+02 1.2500000000e+02 0.0000e+00 0.0000e+00
      -11  1    4    4    0    0 +1.4585013669e-02 +5.5692867743e-02 -1.4324869214e-01 1.5438544965e-01 5.1100000000e-04 0.0000e+00 -1.0000e+00
      255  1    4    4    0    0 -4.0597654285e+01 +5.1778547924e+01 -6.3708785510e+01 1.5496127552e+02 1.2500000000e+02 0.0000e+00 0.0000e+00
<mgrwt>
<rscale>  0 0.28726352E+03</rscale>
<asrwt>0</asrwt>
<pdfrwt beam="1">  1        2 0.28621423E-01 0.28726352E+03</pdfrwt>
<pdfrwt beam="2">  1       -2 0.17060158E-01 0.28726352E+03</pdfrwt>
<totfact> 0.50725512E+03</totfact>
</mgrwt>
</event>
<event>
 8      1 +1.6198320e-01 3.35452300e+02 7.81860800e-03 1.06875000e-01
       -2 -1    0    0    0  501 -0.0000000000e+00 +0.0000000000e+00 +8.2771877778e+01 8.2771877817e+01 2.5500000000e-03 0.0000e+00 1.0000e+00
        2 -1    0    0  501    0 +0.0000000000e+00 -0.0000000000e+00 -3.3987461249e+02 3.3987461250e+02 2.5500000000e-03 0.0000e+00 -1.0000e+00
  1000101  2    1    2    0    0 -2.4048308736e+01 +5.7803654192e+01 -2.4513723625e+02 2.8224434722e+02 1.2510005336e+02 4.1574e+01 0.0000e+00
 -1000101  2    1    2    0    0 +2.4048308736e+01 -5.7803654192e+01 -1.1965498460e+01 1.4040214309e+02 1.2509998018e+02 1.0853e+00 0.0000e+00
       11  1    3    3    0    0 +7.9908522485e-02 +6.1949569159e-02 -1.8998029667e-01 2.1521128067e-01 5.1100000000e-04 0.0000e+00 1.0000e+00
      255  1    3    3    0    0 -2.4128217258e+01 +5.7741704623e+01 -2.4494725596e+02 2.8202913594e+02 1.2500000000e+02 0.0000e+00 0.0000e+00
      -11  1    4    4    0    0 +1.4782383792e-02 -8.9338951331e-02 -1.0298801736e-01 1.3713774075e-01 5.1100000000e-04 0.0000e+00 -1.0000e+00
      255  1    4    4    0    0 +2.4033526352e+01 -5.7714315240e+01 -1.1862510443e+01 1.4026500535e+02 1.2500000000e+02 0.0000e+00 0.0000e+00
<mgrwt>
<rscale>  0 0.33545229E+03</rscale>
<asrwt>0</asrwt>
<pdfrwt beam="1">  1        2 0.52288401E-01 0.33545229E+03</pdfrwt>
<pdfrwt beam="2">  1       -2 0.12734135E-01 0.33545229E+03</pdfrwt>
<totfact> 0.42909843E+03</totfact>
</mgrwt>
</event>
<event>
 8      1 +1.6198320e-01 2.66294700e+02 7.81860800e-03 1.10341900e-01
       -2 -1    0    0    0  501 -0.0000000000e+00 +0.0000000000e+00 +3.3603221877e+01 3.3603221974e+01 2.5500000000e-03 0.0000e+00 -1.0000e+00
        2 -1    0    0  501    0 +0.0000000000e+00 -0.0000000000e+00 -5.2757499087e+02 5.2757499088e+02 2.5500000000e-03 0.0000e+00 1.0000e+00
  1000101  2    1    2    0    0 -4.3022948475e+01 +5.0842445340e+00 -2.1708232563e+02 2.5426677792e+02 1.2510009840e+02 1.6990e+01 0.0000e+00
 -1000101  2    1    2    0    0 +4.3022948475e+01 -5.0842445340e+00 -2.7688944337e+02 3.0691143493e+02 1.2510012551e+02 9.1412e+01 0.0000e+00
       11  1    3    3    0    0 +1.1233703299e-02 +7.5052096229e-02 -2.5959398039e-01 2.7045944060e-01 5.1100000000e-04 0.0000e+00 1.0000e+00
      255  1    3    3    0    0 -4.3034182179e+01 +5.0091924378e+00 -2.1682273165e+02 2.5399631848e+02 1.2500000000e+02 0.0000e+00 0.0000e+00
      -11  1    4    4    0    0 +1.3335635627e-01 -1.5189512909e-02 -2.1049539129e-01 2.4964616948e-01 5.1100000000e-04 0.0000e+00 -1.0000e+00
      255  1    4    4    0    0 +4.2889592119e+01 -5.0690550211e+00 -2.7667894797e+02 3.0666178876e+02 1.2500000000e+02 0.0000e+00 0.0000e+00
<mgrwt>
<rscale>  0 0.26629472E+03</rscale>
<asrwt>0</asrwt>
<pdfrwt beam="1">  1        2 0.81165377E-01 0.26629472E+03</pdfrwt>
<pdfrwt beam="2">  1       -2 0.51697268E-02 0.26629472E+03</pdfrwt>
<totfact> 0.10816784E+04</totfact>
</mgrwt>
</event>
<event>
 8      1 +1.6198320e-01 2.67083300e+02 7.81860800e-03 1.10296100e-01
        2 -1    0    0  501    0 +0.0000000000e+00 +0.0000000000e+00 +6.6963451726e+01 6.6963451775e+01 2.5500000000e-03 0.0000e+00 1.0000e+00
       -2 -1    0    0    0  501 -0.0000000000e+00 -0.0000000000e+00 -2.6631505079e+02 2.6631505080e+02 2.5500000000e-03 0.0000e+00 -1.0000e+00
  1000101  2    1    2    0    0 -4.9838926700e+00 -2.9417454364e+01 -1.4454851065e+02 1.9348000540e+02 1.2510001899e+02 6.1771e+00 0.0000e+00
 -1000101  2    1    2    0    0 +4.9838926700e+00 +2.9417454364e+01 -5.4803088409e+01 1.3979849717e+02 1.2510002200e+02 5.8176e+01 0.0000e+00
       11  1    3    3    0    0 +1.9472119475e-02 -8.4811341155e-03 +3.3961784700e-02 4.0059418545e-02 5.1100000000e-04 0.0000e+00 1.0000e+00
      255  1    3    3    0    0 -5.0033647895e+00 -2.9408973230e+01 -1.4458247244e+02 1.9343994598e+02 1.2500000000e+02 0.0000e+00 0.0000e+00
      -11  1    4    4    0    0 +9.9832648760e-03 -3.5420844506e-02 -1.2688163310e-01 1.3211173961e-01 5.1100000000e-04 0.0000e+00 -1.0000e+00
      255  1    4    4    0    0 +4.9739094051e+00 +2.9452875209e+01 -5.4676206776e+01 1.3966638543e+02 1.2500000000e+02 0.0000e+00 0.0000e+00
<mgrwt>
<rscale>  0 0.26708332E+03</rscale>
<asrwt>0</asrwt>
<pdfrwt beam="1">  1        2 0.10302070E-01 0.26708332E+03</pdfrwt>
<pdfrwt beam="2">  1       -2 0.40971546E-01 0.26708332E+03</pdfrwt>
<totfact> 0.34906293E+03</totfact>
</mgrwt>
</event>
<event>
 8      1 +1.6198320e-01 4.38025900e+02 7.81860800e-03 1.03135400e-01
        2 -1    0    0  501    0 +0.0000000000e+00 +0.0000000000e+00 +5.1109384961e+02 5.1109384962e+02 2.5500000000e-03 0.0000e+00 1.0000e+00
       -2 -1    0    0    0  501 -0.0000000000e+00 -0.0000000000e+00 -9.3851005082e+01 9.3851005117e+01 2.5500000000e-03 0.0000e+00 -1.0000e+00
  1000101  2    1    2    0    0 -7.9529726260e+01 -8.7740062892e+01 +3.9541532674e+02 4.3130799840e+02 1.2510001147e+02 7.8687e+01 0.0000e+00
 -1000101  2    1    2    0    0 +7.9529726260e+01 +8.7740062892e+01 +2.1827517786e+01 1.7363685633e+02 1.2510004536e+02 2.2244e+02 0.0000e+00
       11  1    3    3    0    0 +3.6557216302e-02 +2.1210302937e-02 +1.4119591556e-01 1.4738675214e-01 5.1100000000e-04 0.0000e+00 1.0000e+00
      255  1    3    3    0    0 -7.9566283477e+01 -8.7761273195e+01 +3.9527413083e+02 4.3116061165e+02 1.2500000000e+02 0.0000e+00 0.0000e+00
      -11  1    4    4    0    0 +1.5051511357e-02 -4.7846796944e-02 -1.6243416340e-02 5.2725455595e-02 5.1100000000e-04 0.0000e+00 -1.0000e+00
      255  1    4    4    0    0 +7.9514674749e+01 +8.7787909689e+01 +2.1843761202e+01 1.7358413087e+02 1.2500000000e+02 0.0000e+00 0.0000e+00
<mgrwt>
<rscale>  0 0.43802590E+03</rscale>
<asrwt>0</asrwt>
<pdfrwt beam="1">  1        2 0.78629821E-01 0.43802590E+03</pdfrwt>
<pdfrwt beam="2">  1       -2 0.14438616E-01 0.43802590E+03</pdfrwt>
<totfact> 0.22283410E+03</totfact>
</mgrwt>
</event>
<event>
 8      1 +1.6198320e-01 2.75688500e+02 7.81860800e-03 1.09806700e-01
       -2 -1    0    0    0  501 -0.0000000000e+00 +0.0000000000e+00 +6.8951089174e+01 6.8951089222e+01 2.5500000000e-03 0.0000e+00 -1.0000e+00
        2 -1    0    0  501    0 +0.0000000000e+00 -0.0000000000e+00 -2.7557270060e+02 2.7557270061e+02 2.5500000000e-03 0.0000e+00 1.0000e+00
  1000101  2    1    2    0    0 -1.8678606655e+01 +4.9432633590e+01 -7.3776457843e+01 1.5454918505e+02 1.2509999703e+02 4.6416e+00 0.0000e+00
 -1000101  2    1    2    0    0 +1.8678606655e+01 -4.9432633590e+01 -1.3284515358e+02 1.8997460479e+02 1.2510012000e+02 1.1904e+01 0.0000e+00
       11  1    3    3    0    0 +6.0256769326e-02 +8.2606902699e-02 -1.1886174206e-01 1.5679015744e-01 5.1100000000e-04 0.0000e+00 1.0000e+00
      255  1    3    3    0    0 -1.8738863424e+01 +4.9350026688e+01 -7.3657596101e+01 1.5439239489e+02 1.2500000000e+02 0.0000e+00 0.0000e+00
      -11  1    4    4    0    0 +6.6458501862e-02 -5.1268086532e-02 +2.5765495555e-03 8.3976478223e-02 5.1100000000e-04 0.0000e+00 -1.0000e+00
      255  1    4    4    0    0 +1.8612148153e+01 -4.9381365504e+01 -1.3284773013e+02 1.8989062831e+02 1.2500000000e+02 0.0000e+00 0.0000e+00
<mgrwt>
<rscale>  0 0.27568850E+03</rscale>
<asrwt>0</asrwt>
<pdfrwt beam="1">  1        2 0.42395800E-01 0.27568850E+03</pdfrwt>
<pdfrwt beam="2">  1       -2 0.10607860E-01 0.27568850E+03</pdfrwt>
<totfact> 0.71852032E+03</totfact>
</mgrwt>
</event>
<event>
 8      1 +1.6198320e-01 2.91902800e+02 7.81860800e-03 1.08936000e-01
       -2 -1    0    0    0  501 -0.0000000000e+00 +0.0000000000e+00 +2.5902335477e+01 2.5902335602e+01 2.5500000000e-03 0.0000e+00 -1.0000e+00
        2 -1    0    0  501    0 +0.0000000000e+00 -0.0000000000e+00 -8.2238981031e+02 8.2238981032e+02 2.5500000000e-03 0.0000e+00 1.0000e+00
  1000101  2    1    2    0    0 -2.9204154538e+01 -5.1413909925e+01 -2.6332123013e+02 2.9746317860e+02 1.2509995847e+02 8.1641e+01 0.0000e+00
 -1000101  2    1    2    0    0 +2.9204154538e+01 +5.1413909925e+01 -5.3316624470e+02 5.5082896732e+02 1.2510009581e+02 1.6332e+02 0.0000e+00
       11  1    3    3    0    0 -5.7766114049e-02 +1.2935056770e-02 -3.5311087192e-01 3.5803880881e-01 5.1100000000e-04 0.0000e+00 1.0000e+00
      255  1    3    3    0    0 -2.9146388424e+01 -5.1426844982e+01 -2.6296811926e+02 2.9710513979e+02 1.2500000000e+02 0.0000e+00 0.0000e+00
      -11  1    4    4    0    0 +1.1866462882e-01 +3.2406721213e-02 -3.5726613749e-01 3.7785029288e-01 5.1100000000e-04 0.0000e+00 -1.0000e+00
      255  1    4    4    0    0 +2.9085489909e+01 +5.1381503204e+01 -5.3280897856e+02 5.5045111702e+02 1.2500000000e+02 0.0000e+00 0.0000e+00
<mgrwt>
<rscale>  0 0.29190284E+03</rscale>
<asrwt>0</asrwt>
<pdfrwt beam="1">  1        2 0.12652149E+00 0.29190284E+03</pdfrwt>
<pdfrwt beam="2">  1       -2 0.39849753E-02 0.29190284E+03</pdfrwt>
<totfact> 0.94559504E+03</totfact>
</mgrwt>
</event>
<event>
 8      1 +1.6198320e-01 1.26839600e+03 7.81860800e-03 9.05501000e-02
        2 -1    0    0  501    0 +0.0000000000e+00 +0.0000000000e+00 +7.0580095264e+02 7.0580095265e+02 2.5500000000e-03 0.0000e+00 1.0000e+00
       -2 -1    0    0    0  501 -0.0000000000e+00 -0.0000000000e+00 -5.6985924043e+02 5.6985924044e+02 2.5500000000e-03 0.0000e+00 -1.0000e+00
  1000101  2    1    2    0    0 -5.0730135149e+02 -3.5349049185e+02 +1.3351302463e+02 6.4481465382e+02 1.2510004390e+02 3.5218e+01 0.0000e+00
 -1000101  2    1    2    0    0 +5.0730135149e+02 +3.5349049185e+02 +2.4286875768e+00 6.3084553926e+02 1.2509998733e+02 1.2640e+02 0.0000e+00
       11  1    3    3    0    0 -4.4895475795e-01 -2.8858251893e-01 +1.4971105700e-02 5.3391445012e-01 5.1100000000e-04 0.0000e+00 1.0000e+00
      255  1    3    3    0    0 -5.0685239673e+02 -3.5320190934e+02 +1.3349805353e+02 6.4428073937e+02 1.2500000000e+02 0.0000e+00 0.0000e+00
      -11  1    4    4    0    0 +5.2258972676e-01 +3.4710626354e-01 +9.7816568583e-02 6.3494182640e-01 5.1100000000e-04 0.0000e+00 -1.0000e+00
      255  1    4    4    0    0 +5.0677876176e+02 +3.5314338559e+02 +2.3308710082e+00 6.3021059744e+02 1.2500000000e+02 0.0000e+00 0.0000e+00
<mgrwt>
<rscale>  0 0.12683961E+04</rscale>
<asrwt>0</asrwt>
<pdfrwt beam="1">  1        2 0.10858476E+00 0.12683961E+04</pdfrwt>
<pdfrwt beam="2">  1       -2 0.87670653E-01 0.12683961E+04</pdfrwt>
<totfact> 0.44728623E+01</totfact>
</mgrwt>
</event>
<event>
 8      1 +1.6198320e-01 2.63790000e+02 7.81860800e-03 1.10488700e-01
        1 -1    0    0  501    0 +0.0000000000e+00 +0.0000000000e+00 +8.4711333667e+02 8.4711333668e+02 5.0400000000e-03 0.0000e+00 1.0000e+00
       -1 -1    0    0    0  501 -0.0000000000e+00 -0.0000000000e+00 -2.0535958899e+01 2.0535959518e+01 5.0400000000e-03 0.0000e+00 -1.0000e+00
  1000101  2    1    2    0    0 -2.4892876699e+01 +3.1350191240e+01 +4.5273050372e+02 4.7139940688e+02 1.2509996806e+02 3.7508e+01 0.0000e+00
 -1000101  2    1    2    0    0 +2.4892876699e+01 -3.1350191240e+01 +3.7384687405e+02 3.9624988932e+02 1.2509995903e+02 5.3643e+01 0.0000e+00
       11  1    3    3    0    0 -7.6592499736e-02 +1.0975692936e-01 +5.5268133430e-01 5.6865623443e-01 5.1100000000e-04 0.0000e+00 1.0000e+00
      255  1    3    3    0    0 -2.4816284199e+01 +3.1240434311e+01 +4.5217782239e+02 4.7083075065e+02 1.2500000000e+02 0.0000e+00 0.0000e+00
      -11  1    4    4    0    0 +4.9167792358e-02 -1.1137457503e-01 +2.2660100370e-01 2.5723538592e-01 5.1100000000e-04 0.0000e+00 -1.0000e+00
      255  1    4    4    0    0 +2.4843708906e+01 -3.1238816665e+01 +3.7362027305e+02 3.9599265393e+02 1.2500000000e+02 0.0000e+00 0.0000e+00
<mgrwt>
<rscale>  0 0.26378995E+03</rscale>
<asrwt>0</asrwt>
<pdfrwt beam="1">  1        1 0.13032509E+00 0.26378995E+03</pdfrwt>
<pdfrwt beam="2">  1       -1 0.31593792E-02 0.26378995E+03</pdfrwt>
<totfact> 0.73339927E+03</totfact>
</mgrwt>
</event>
<event>
 8      1 +1.6198320e-01 2.75352900e+02 7.81860800e-03 1.09825400e-01
       -2 -1    0    0    0  501 -0.0000000000e+00 +0.0000000000e+00 +3.8576216265e+01 3.8576216349e+01 2.5500000000e-03 0.0000e+00 -1.0000e+00
        2 -1    0    0  501    0 +0.0000000000e+00 -0.0000000000e+00 -4.9135996348e+02 4.9135996348e+02 2.5500000000e-03 0.0000e+00 1.0000e+00
  1000101  2    1    2    0    0 -1.9923516176e+00 +5.5894762091e+01 -2.5196350380e+02 2.8681692537e+02 1.2510054971e+02 1.1766e+01 0.0000e+00
 -1000101  2    1    2    0    0 +1.9923516176e+00 -5.5894762091e+01 -2.0082024341e+02 2.4311925446e+02 1.2509999133e+02 3.3100e+01 0.0000e+00
       11  1    3    3    0    0 +8.2171696209e-02 +8.2999360987e-02 -1.3902887422e-01 1.8157745062e-01 5.1100000000e-04 0.0000e+00 1.0000e+00
      255  1    3    3    0    0 -2.0745233138e+00 +5.5811762730e+01 -2.5182447493e+02 2.8663534792e+02 1.2500000000e+02 0.0000e+00 0.0000e+00
      -11  1    4    4    0    0 -4.3846108089e-02 +5.1575047129e-02 -7.3481178696e-02 9.9911017536e-02 5.1100000000e-04 0.0000e+00 -1.0000e+00
      255  1    4    4    0    0 +2.0361977257e+00 -5.5946337138e+01 -2.0074676223e+02 2.4301934344e+02 1.2500000000e+02 0.0000e+00 0.0000e+00
<mgrwt>
<rscale>  0 0.27535292E+03</rscale>
<asrwt>0</asrwt>
<pdfrwt beam="1">  1        2 0.75593836E-01 0.27535292E+03</pdfrwt>
<pdfrwt beam="2">  1       -2 0.59348029E-02 0.27535292E+03</pdfrwt>
<totfact> 0.95015610E+03</totfact>
</mgrwt>
</event>
<event>
 8      1 +1.6198320e-01 4.82396300e+02 7.81860800e-03 1.01847900e-01
        2 -1    0    0  501    0 +0.0000000000e+00 +0.0000000000e+00 +1.2165675157e+03 1.2165675157e+03 2.5500000000e-03 0.0000e+00 1.0000e+00
       -2 -1    0    0    0  501 -0.0000000000e+00 -0.0000000000e+00 -4.7820227839e+01 4.7820227907e+01 2.5500000000e-03 0.0000e+00 -1.0000e+00
  1000101  2    1    2    0    0 -1.1499157039e+02 -8.9650098966e+01 +2.0214599606e+02 2.7887859881e+02 1.2510023041e+02 1.3408e+01 0.0000e+00
 -1000101  2    1    2    0    0 +1.1499157039e+02 +8.9650098966e+01 +9.6660129181e+02 9.8550914481e+02 1.2510002263e+02 1.6203e+01 0.0000e+00
       11  1    3    3    0    0 -5.3410262137e-02 -5.2945594219e-02 +2.6755812442e-01 2.7792715433e-01 5.1100000000e-04 0.0000e+00 1.0000e+00
      255  1    3    3    0    0 -1.1493816013e+02 -8.9597153371e+01 +2.0187843794e+02 2.7860067166e+02 1.2500000000e+02 0.0000e+00 0.0000e+00
      -11  1    4    4    0    0 +1.2961166329e-01 +1.0023402354e-01 +4.6528670998e-01 4.9329304307e-01 5.1100000000e-04 0.0000e+00 -1.0000e+00
      255  1    4    4    0    0 +1.1486195873e+02 +8.9549864942e+01 +9.6613600510e+02 9.8501585177e+02 1.2500000000e+02 0.0000e+00 0.0000e+00
<mgrwt>
<rscale>  0 0.48239625E+03</rscale>
<asrwt>0</asrwt>
<pdfrwt beam="1">  1        2 0.18716423E+00 0.48239625E+03</pdfrwt>
<pdfrwt beam="2">  1       -2 0.73569581E-02 0.48239625E+03</pdfrwt>
<totfact> 0.21048598E+03</totfact>
</mgrwt>
</event>
<event>
 8      1 +1.6198320e-01 5.58405300e+02 7.81860800e-03 9.99566900e-02
       -2 -1    0    0    0  501 -0.0000000000e+00 +0.0000000000e+00 +2.4884873084e+02 2.4884873085e+02 2.5500000000e-03 0.0000e+00 -1.0000e+00
        2 -1    0    0  501    0 +0.0000000000e+00 -0.0000000000e+00 -3.1325905047e+02 3.1325905048e+02 2.5500000000e-03 0.0000e+00 1.0000e+00
  1000101  2    1    2    0    0 -3.3186923200e+01 -2.3475021800e+02 +4.6383493626e+01 2.7204865141e+02 1.2509997414e+02 3.6079e+02 0.0000e+00
 -1000101  2    1    2    0    0 +3.3186923200e+01 +2.3475021800e+02 -1.1079381325e+02 2.9005912992e+02 1.2509993236e+02 2.4385e+01 0.0000e+00
       11  1    3    3    0    0 -1.1769022675e-01 -1.3236072883e-01 +3.0151333019e-02 1.7966556713e-01 5.1100000000e-04 0.0000e+00 1.0000e+00
      255  1    3    3    0    0 -3.3069232973e+01 -2.3461785727e+02 +4.6353342293e+01 2.7186898584e+02 1.2500000000e+02 0.0000e+00 0.0000e+00
      -11  1    4    4    0    0 -7.6305303217e-02 +1.3886093210e-01 -5.4582940551e-02 1.6758405737e-01 5.1100000000e-04 0.0000e+00 -1.0000e+00
      255  1    4    4    0    0 +3.3263228503e+01 +2.3461135707e+02 -1.1073923031e+02 2.8989154587e+02 1.2500000000e+02 0.0000e+00 0.0000e+00
<mgrwt>
<rscale>  0 0.55840529E+03</rscale>
<asrwt>0</asrwt>
<pdfrwt beam="1">  1        2 0.48193700E-01 0.55840529E+03</pdfrwt>
<pdfrwt beam="2">  1       -2 0.38284420E-01 0.55840529E+03</pdfrwt>
<totfact> 0.67806541E+02</totfact>
</mgrwt>
</event>
<event>
 8      1 +1.6198320e-01 2.91865700e+02 7.81860800e-03 1.08937900e-01
        1 -1    0    0  501    0 +0.0000000000e+00 +0.0000000000e+00 +7.3306002252e+02 7.3306002254e+02 5.0400000000e-03 0.0000e+00 -1.0000e+00
       -1 -1    0    0    0  501 -0.0000000000e+00 -0.0000000000e+00 -2.9051358669e+01 2.9051359106e+01 5.0400000000e-03 0.0000e+00 1.0000e+00
  1000101  2    1    2    0    0 +6.8555914842e+01 -4.6466895972e+00 +4.3141412343e+02 4.5441134625e+02 1.2510004203e+02 0.0000e+00 0.0000e+00
 -1000101  2    1    2    0    0 -6.8555914842e+01 +4.6466895972e+00 +2.7259454042e+02 3.0770003540e+02 1.2510005249e+02 3.7276e+01 0.0000e+00
       11  1    3    3    0    0 +1.4864064172e-01 -6.0994590583e-02 +5.2111255931e-01 5.4531911853e-01 5.1100000000e-04 0.0000e+00 1.0000e+00
      255  1    3    3    0    0 +6.8407274200e+01 -4.5856950066e+00 +4.3089301088e+02 4.5386602713e+02 1.2500000000e+02 0.0000e+00 0.0000e+00
      -11  1    4    4    0    0 -1.5169992031e-01 +4.5173248000e-02 +2.3506260958e-01 2.8338697871e-01 5.1100000000e-04 0.0000e+00 -1.0000e+00
      255  1    4    4    0    0 -6.8404214921e+01 +4.6015163492e+00 +2.7235947781e+02 3.0741664842e+02 1.2500000000e+02 0.0000e+00 0.0000e+00
<mgrwt>
<rscale>  0 0.29186565E+03</rscale>
<asrwt>0</asrwt>
<pdfrwt beam="1">  1        1 0.11277845E+00 0.29186565E+03</pdfrwt>
<pdfrwt beam="2">  1       -1 0.44694402E-02 0.29186565E+03</pdfrwt>
<totfact> 0.54808248E+03</totfact>
</mgrwt>
</event>
<event>
 8      1 +1.6198320e-01 3.21938000e+02 7.81860800e-03 1.07476100e-01
        4 -1    0    0  501    0 +0.0000000000e+00 +0.0000000000e+00 +3.2194318673e+02 3.2194569166e+02 1.2700000000e+00 0.0000e+00 1.0000e+00
       -4 -1    0    0    0  501 -0.0000000000e+00 -0.0000000000e+00 -8.0475373973e+01 8.0485394427e+01 1.2700000000e+00 0.0000e+00 -1.0000e+00
  1000101  2    1    2    0    0 -8.5001528257e+01 +4.6006380213e+00 +1.8936703798e+02 2.4239704292e+02 1.2510006262e+02 5.1293e+00 0.0000e+00
 -1000101  2    1    2    0    0 +8.5001528257e+01 -4.6006380213e+00 +5.2100774775e+01 1.6003404317e+02 1.2509987436e+02 9.8001e+00 0.0000e+00
       11  1    3    3    0    0 -6.0419576618e-02 +7.5477157123e-02 +2.5978078905e-01 2.7718882728e-01 5.1100000000e-04 0.0000e+00 1.0000e+00
      255  1    3    3    0    0 -8.4941108681e+01 +4.5251608642e+00 +1.8910725719e+02 2.4211985410e+02 1.2500000000e+02 0.0000e+00 0.0000e+00
      -11  1    4    4    0    0 +9.2715775517e-03 -8.5952224321e-02 +5.8910942703e-02 1.0461599929e-01 5.1100000000e-04 0.0000e+00 -1.0000e+00
      255  1    4    4    0    0 +8.4992256680e+01 -4.5146857970e+00 +5.2041863832e+01 1.5992942717e+02 1.2500000000e+02 0.0000e+00 0.0000e+00
<mgrwt>
<rscale>  0 0.32193800E+03</rscale>
<asrwt>0</asrwt>
<pdfrwt beam="1">  1        4 0.49530683E-01 0.32193800E+03</pdfrwt>
<pdfrwt beam="2">  1       -4 0.12381791E-01 0.32193800E+03</pdfrwt>
<totfact> 0.39723688E+02</totfact>
</mgrwt>
</event>
<event>
 8      1 +1.6198320e-01 3.16267200e+02 7.81860800e-03 1.07738000e-01
        2 -1    0    0  501    0 +0.0000000000e+00 +0.0000000000e+00 +2.4511820767e+03 2.4511820767e+03 2.5500000000e-03 0.0000e+00 1.0000e+00
       -2 -1    0    0    0  501 -0.0000000000e+00 -0.0000000000e+00 -1.0201702706e+01 1.0201703024e+01 2.5500000000e-03 0.0000e+00 -1.0000e+00
  1000101  2    1    2    0    0 -6.4020554987e+01 +3.3684088216e+01 +1.7202149431e+03 1.7262742168e+03 1.2509984785e+02 2.9721e+01 0.0000e+00
 -1000101  2    1    2    0    0 +6.4020554987e+01 -3.3684088216e+01 +7.2076543089e+02 7.3510956291e+02 1.2510001536e+02 2.2817e+02 0.0000e+00
       11  1    3    3    0    0 -2.6859475340e-02 -7.4994133686e-02 +1.1250589554e+00 1.1278756428e+00 5.1100000000e-04 0.0000e+00 1.0000e+00
      255  1    3    3    0    0 -6.3993695512e+01 +3.3759082350e+01 +1.7190898841e+03 1.7251463412e+03 1.2500000000e+02 0.0000e+00 0.0000e+00
      -11  1    4    4    0    0 +7.9909646175e-02 -1.2488330050e-01 +9.0055901148e-01 9.1268186383e-01 5.1100000000e-04 0.0000e+00 -1.0000e+00
      255  1    4    4    0    0 +6.3940645341e+01 -3.3559204915e+01 +7.1986487188e+02 7.3419688104e+02 1.2500000000e+02 0.0000e+00 0.0000e+00
<mgrwt>
<rscale>  0 0.31626717E+03</rscale>
<asrwt>0</asrwt>
<pdfrwt beam="1">  1        2 0.37710464E+00 0.31626717E+03</pdfrwt>
<pdfrwt beam="2">  1       -2 0.15694940E-02 0.31626717E+03</pdfrwt>
<totfact> 0.47025217E+03</totfact>
</mgrwt>
</event>
<event>
 8      1 +1.6198320e-01 3.49033700e+02 7.81860800e-03 1.06301200e-01
        1 -1    0    0  501    0 +0.0000000000e+00 +0.0000000000e+00 +3.9555881392e+02 3.9555881395e+02 5.0400000000e-03 0.0000e+00 1.0000e+00
       -1 -1    0    0    0  501 -0.0000000000e+00 -0.0000000000e+00 -7.6995208590e+01 7.6995208755e+01 5.0400000000e-03 0.0000e+00 -1.0000e+00
  1000101  2    1    2    0    0 -9.4657119137e+01 +4.6630040042e+01 +2.4132107117e+02 2.9158224199e+02 1.2510001445e+02 6.5994e+01 0.0000e+00
 -1000101  2    1    2    0    0 +9.4657119137e+01 -4.6630040042e+01 +7.7242534156e+01 1.8097178071e+02 1.2510014186e+02 6.1124e+01 0.0000e+00
       11  1    3    3    0    0 -2.7862587760e-02 +1.1436987850e-01 +2.6004892290e-01 2.8545139048e-01 5.1100000000e-04 0.0000e+00 1.0000e+00
      255  1    3    3    0    0 -9.4629256549e+01 +4.6515670164e+01 +2.4106102225e+02 2.9129679060e+02 1.2500000000e+02 0.0000e+00 0.0000e+00
      -11  1    4    4    0    0 +2.0456550982e-02 -8.1987445529e-02 -2.8068318555e-02 8.9042143565e-02 5.1100000000e-04 0.0000e+00 -1.0000e+00
      255  1    4    4    0    0 +9.4636662586e+01 -4.6548052597e+01 +7.7270602475e+01 1.8088273857e+02 1.2500000000e+02 0.0000e+00 0.0000e+00
<mgrwt>
<rscale>  0 0.34903371E+03</rscale>
<asrwt>0</asrwt>
<pdfrwt beam="1">  1        1 0.60855201E-01 0.34903371E+03</pdfrwt>
<pdfrwt beam="2">  1       -1 0.11845417E-01 0.34903371E+03</pdfrwt>
<totfact> 0.28823692E+03</totfact>
</mgrwt>
</event>
<event>
 8      1 +1.6198320e-01 3.16642400e+02 7.81860800e-03 1.07720500e-01
        2 -1    0    0  501    0 +0.0000000000e+00 +0.0000000000e+00 +3.6538238116e+02 3.6538238117e+02 2.5500000000e-03 0.0000e+00 1.0000e+00
       -2 -1    0    0    0  501 -0.0000000000e+00 -0.0000000000e+00 -6.8601015589e+01 6.8601015637e+01 2.5500000000e-03 0.0000e+00 -1.0000e+00
  1000101  2    1    2    0    0 +1.7904464331e+01 -5.3775798261e+01 +2.5633796337e+02 2.9081187455e+02 1.2509991444e+02 2.3979e+01 0.0000e+00
 -1000101  2    1    2    0    0 -1.7904464331e+01 +5.3775798261e+01 +4.0443402198e+01 1.4317152225e+02 1.2509999873e+02 1.4773e+02 0.0000e+00
       11  1    3    3    0    0 -2.7426055326e-03 -1.4842407260e-01 +2.9694685102e-01 3.3198632602e-01 5.1100000000e-04 0.0000e+00 1.0000e+00
      255  1    3    3    0    0 +1.7907206937e+01 -5.3627374189e+01 +2.5604101652e+02 2.9047988823e+02 1.2500000000e+02 0.0000e+00 0.0000e+00
      -11  1    4    4    0    0 +1.4090154654e-02 +3.8615591982e-02 -6.9240521259e-02 8.0524575801e-02 5.1100000000e-04 0.0000e+00 -1.0000e+00
      255  1    4    4    0    0 -1.7918554486e+01 +5.3737182669e+01 +4.0512642719e+01 1.4309099768e+02 1.2500000000e+02 0.0000e+00 0.0000e+00
<mgrwt>
<rscale>  0 0.31664240E+03</rscale>
<asrwt>0</asrwt>
<pdfrwt beam="1">  1        2 0.56212674E-01 0.31664240E+03</pdfrwt>
<pdfrwt beam="2">  1       -2 0.10554002E-01 0.31664240E+03</pdfrwt>
<totfact> 0.53654665E+03</totfact>
</mgrwt>
</event>
<event>
 8      1 +1.6198320e-01 2.91020100e+02 7.81860800e-03 1.08981800e-01
        2 -1    0    0  501    0 +0.0000000000e+00 +0.0000000000e+00 +8.9621467547e+02 8.9621467547e+02 2.5500000000e-03 0.0000e+00 1.0000e+00
       -2 -1    0    0    0  501 -0.0000000000e+00 -0.0000000000e+00 -2.3625120377e+01 2.3625120515e+01 2.5500000000e-03 0.0000e+00 -1.0000e+00
  1000101  2    1    2    0    0 +2.0794310453e+00 +4.7509495507e+01 +6.1680877908e+02 6.3116123733e+02 1.2509980558e+02 0.0000e+00 0.0000e+00
 -1000101  2    1    2    0    0 -2.0794310453e+00 -4.7509495507e+01 +2.5578077601e+02 2.8867855866e+02 1.2510007457e+02 9.8007e+00 0.0000e+00
       11  1    3    3    0    0 -5.1144365965e-02 +1.9028659650e-02 +8.4802602238e-01 8.4978010792e-01 5.1100000000e-04 0.0000e+00 1.0000e+00
      255  1    3    3    0    0 +2.1305754112e+00 +4.7490466847e+01 +6.1596075306e+02 6.3031145722e+02 1.2500000000e+02 0.0000e+00 0.0000e+00
      -11  1    4    4    0    0 -5.9082928165e-02 -1.2169098343e-01 +2.0843653266e-01 2.4848649282e-01 5.1100000000e-04 0.0000e+00 -1.0000e+00
      255  1    4    4    0    0 -2.0203481171e+00 -4.7387804524e+01 +2.5557233948e+02 2.8843007217e+02 1.2500000000e+02 0.0000e+00 0.0000e+00
<mgrwt>
<rscale>  0 0.29102013E+03</rscale>
<asrwt>0</asrwt>
<pdfrwt beam="1">  1        2 0.13787919E+00 0.29102013E+03</pdfrwt>
<pdfrwt beam="2">  1       -2 0.36346336E-02 0.29102013E+03</pdfrwt>
<totfact> 0.96982417E+03</totfact>
</mgrwt>
</event>
<event>
 8      1 +1.6198320e-01 3.20788000e+02 7.81860800e-03 1.07528700e-01
        1 -1    0    0  501    0 +0.0000000000e+00 +0.0000000000e+00 +1.0417749181e+03 1.0417749181e+03 5.0400000000e-03 0.0000e+00 1.0000e+00
       -1 -1    0    0    0  501 -0.0000000000e+00 -0.0000000000e+00 -2.4694620942e+01 2.4694621456e+01 5.0400000000e-03 0.0000e+00 -1.0000e+00
  1000101  2    1    2    0    0 -4.7114330986e+01 -4.9446678665e+01 +7.5310250247e+02 7.6647118637e+02 1.2509982454e+02 1.7264e+01 0.0000e+00
 -1000101  2    1    2    0    0 +4.7114330986e+01 +4.9446678665e+01 +2.6397779465e+02 2.9999835316e+02 1.2509996648e+02 4.2123e+01 0.0000e+00
       11  1    3    3    0    0 -1.2332688675e-02 -1.2250993969e-01 +9.9535721663e-01 1.0029441811e+00 5.1100000000e-04 0.0000e+00 1.0000e+00
      255  1    3    3    0    0 -4.7101998297e+01 -4.9324168726e+01 +7.5210714525e+02 7.6546824219e+02 1.2500000000e+02 0.0000e+00 0.0000e+00
      -11  1    4    4    0    0 -4.1798894071e-02 -4.1289967217e-02 +1.3091670327e-01 1.4349722386e-01 5.1100000000e-04 0.0000e+00 -1.0000e+00
      255  1    4    4    0    0 +4.7156129880e+01 +4.9487968633e+01 +2.6384687795e+02 2.9985485594e+02 1.2500000000e+02 0.0000e+00 0.0000e+00
<mgrwt>
<rscale>  0 0.32078801E+03</rscale>
<asrwt>0</asrwt>
<pdfrwt beam="1">  1        1 0.16027306E+00 0.32078801E+03</pdfrwt>
<pdfrwt beam="2">  1       -1 0.37991725E-02 0.32078801E+03</pdfrwt>
<totfact> 0.39619196E+03</totfact>
</mgrwt>
</event>
<event>
 8      1 +1.6198320e-01 4.85316300e+02 7.81860800e-03 1.01768400e-01
       -2 -1    0    0    0  501 -0.0000000000e+00 +0.0000000000e+00 +7.2502528600e+01 7.2502528645e+01 2.5500000000e-03 0.0000e+00 -1.0000e+00
        2 -1    0    0  501    0 +0.0000000000e+00 -0.0000000000e+00 -8.1215051712e+02 8.1215051713e+02 2.5500000000e-03 0.0000e+00 1.0000e+00
  1000101  2    1    2    0    0 -8.6472739892e+01 -2.0392331736e+01 -2.7151377041e+01 1.5582191511e+02 1.2509952044e+02 2.7671e+00 0.0000e+00
 -1000101  2    1    2    0    0 +8.6472739892e+01 +2.0392331736e+01 -7.1249661148e+02 7.2883113066e+02 1.2510001484e+02 9.8548e+01 0.0000e+00
       11  1    3    3    0    0 +4.3770842873e-02 -3.5735132510e-02 -3.4664805916e-02 6.6293259622e-02 5.1100000000e-04 0.0000e+00 1.0000e+00
      255  1    3    3    0    0 -8.6516510734e+01 -2.0356596604e+01 -2.7116712235e+01 1.5575562185e+02 1.2500000000e+02 0.0000e+00 0.0000e+00
      -11  1    4    4    0    0 -4.8852991945e-02 -4.6107630154e-03 -1.4819439291e-01 1.5610801763e-01 5.1100000000e-04 0.0000e+00 -1.0000e+00
      255  1    4    4    0    0 +8.6521592883e+01 +2.0396942499e+01 -7.1234841709e+02 7.2867502265e+02 1.2500000000e+02 0.0000e+00 0.0000e+00
<mgrwt>
<rscale>  0 0.48531625E+03</rscale>
<asrwt>0</asrwt>
<pdfrwt beam="1">  1        2 0.12494623E+00 0.48531625E+03</pdfrwt>
<pdfrwt beam="2">  1       -2 0.11154236E-01 0.48531625E+03</pdfrwt>
<totfact> 0.19416016E+03</totfact>
</mgrwt>
</event>
<event>
 8      1 +1.6198320e-01 2.76238000e+02 7.81860800e-03 1.09776200e-01
       -2 -1    0    0    0  501 -0.0000000000e+00 +0.0000000000e+00 +6.9100873631e+00 6.9100878336e+00 2.5500000000e-03 0.0000e+00 -1.0000e+00
        2 -1    0    0  501    0 +0.0000000000e+00 -0.0000000000e+00 -2.7607254890e+03 2.7607254890e+03 2.5500000000e-03 0.0000e+00 1.0000e+00
  1000101  2    1    2    0    0 -3.8396266234e+01 +4.3423701669e+01 -1.4588977130e+03 1.4653983745e+03 1.2509983220e+02 1.5184e+02 0.0000e+00
 -1000101  2    1    2    0    0 +3.8396266234e+01 -4.3423701669e+01 -1.2949176886e+03 1.3022372023e+03 1.2510003811e+02 2.0299e+01 0.0000e+00
       11  1    3    3    0    0 +1.6440006902e-02 +1.0527438850e-01 -1.8265613288e+00 1.8296665051e+00 5.1100000000e-04 0.0000e+00 1.0000e+00
      255  1    3    3    0    0 -3.8412706241e+01 +4.3318427280e+01 -1.4570711516e+03 1.4635687080e+03 1.2500000000e+02 0.0000e+00 0.0000e+00
      -11  1    4    4    0    0 +7.7884437115e-03 -1.3210169412e-01 -1.0357964871e+00 1.0442155626e+00 5.1100000000e-04 0.0000e+00 -1.0000e+00
      255  1    4    4    0    0 +3.8388477790e+01 -4.3291599975e+01 -1.2938818922e+03 1.3011929867e+03 1.2500000000e+02 0.0000e+00 0.0000e+00
<mgrwt>
<rscale>  0 0.27623798E+03</rscale>
<asrwt>0</asrwt>
<pdfrwt beam="1">  1        2 0.42472612E+00 0.27623798E+03</pdfrwt>
<pdfrwt beam="2">  1       -2 0.10630926E-02 0.27623798E+03</pdfrwt>
<totfact> 0.55954803E+03</totfact>
</mgrwt>
</event>
<event>
 8      1 +1.6198320e-01 2.94859000e+02 7.81860800e-03 1.08783900e-01
        2 -1    0    0  501    0 +0.0000000000e+00 +0.0000000000e+00 +1.3273840437e+03 1.3273840437e+03 2.5500000000e-03 0.0000e+00 1.0000e+00
       -2 -1    0    0    0  501 -0.0000000000e+00 -0.0000000000e+00 -1.6374655906e+01 1.6374656105e+01 2.5500000000e-03 0.0000e+00 -1.0000e+00
  1000101  2    1    2    0    0 +4.1284311598e+01 +5.4364905411e+01 +8.2757580452e+02 8.3975690476e+02 1.2509999815e+02 8.2940e+01 0.0000e+00
 -1000101  2    1    2    0    0 -4.1284311598e+01 -5.4364905411e+01 +4.8343358332e+02 5.0400179509e+02 1.2509933114e+02 2.4290e+01 0.0000e+00
       11  1    3    3    0    0 +3.5673973971e-02 +9.3312403091e-03 +1.1483113248e+00 1.1489033312e+00 5.1100000000e-04 0.0000e+00 1.0000e+00
      255  1    3    3    0    0 +4.1248637624e+01 +5.4355574170e+01 +8.2642749320e+02 8.3860800143e+02 1.2500000000e+02 0.0000e+00 0.0000e+00
      -11  1    4    4    0    0 -6.3624271184e-02 +4.9565866396e-02 +1.8171974284e-01 1.9881435827e-01 5.1100000000e-04 0.0000e+00 -1.0000e+00
      255  1    4    4    0    0 -4.1220687327e+01 -5.4414471277e+01 +4.8325186357e+02 5.0380298073e+02 1.2500000000e+02 0.0000e+00 0.0000e+00
<mgrwt>
<rscale>  0 0.29485900E+03</rscale>
<asrwt>0</asrwt>
<pdfrwt beam="1">  1        2 0.20421288E+00 0.29485900E+03</pdfrwt>
<pdfrwt beam="2">  1       -2 0.25191784E-02 0.29485900E+03</pdfrwt>
<totfact> 0.93206305E+03</totfact>
</mgrwt>
</event>
<event>
 8      1 +1.6198320e-01 2.79572500e+02 7.81860800e-03 1.09592300e-01
       -2 -1    0    0    0  501 -0.0000000000e+00 +0.0000000000e+00 +1.3312336632e+01 1.3312336876e+01 2.5500000000e-03 0.0000e+00 -1.0000e+00
        2 -1    0    0  501    0 +0.0000000000e+00 -0.0000000000e+00 -1.4678256296e+03 1.4678256296e+03 2.5500000000e-03 0.0000e+00 1.0000e+00
  1000101  2    1    2    0    0 +3.1920242494e+01 -3.1512576333e+01 -9.5685780973e+02 9.6604289384e+02 1.2510020124e+02 1.2602e+02 0.0000e+00
 -1000101  2    1    2    0    0 -3.1920242494e+01 +3.1512576333e+01 -4.9765548322e+02 5.1509507262e+02 1.2509999804e+02 6.4282e+01 0.0000e+00
       11  1    3    3    0    0 +5.4483230342e-02 -1.0963131584e-01 -5.7567348627e-01 5.8854708538e-01 5.1100000000e-04 0.0000e+00 1.0000e+00
      255  1    3    3    0    0 +3.1865759264e+01 -3.1402945017e+01 -9.5628213624e+02 9.6545434675e+02 1.2500000000e+02 0.0000e+00 0.0000e+00
      -11  1    4    4    0    0 -3.2372913492e-02 +6.6495147049e-02 -8.5945896517e-02 1.1338680858e-01 5.1100000000e-04 0.0000e+00 -1.0000e+00
      255  1    4    4    0    0 -3.1887869581e+01 +3.1446081186e+01 -4.9756953733e+02 5.1498168582e+02 1.2500000000e+02 0.0000e+00 0.0000e+00
<mgrwt>
<rscale>  0 0.27957245E+03</rscale>
<asrwt>0</asrwt>
<pdfrwt beam="1">  1        2 0.22581920E+00 0.27957245E+03</pdfrwt>
<pdfrwt beam="2">  1       -2 0.20480530E-02 0.27957245E+03</pdfrwt>
<totfact> 0.10602622E+04</totfact>
</mgrwt>
</event>
<event>
 8      1 +1.6198320e-01 3.83397200e+02 7.81860800e-03 1.04968500e-01
       -4 -1    0    0    0  501 -0.0000000000e+00 +0.0000000000e+00 +2.3593431372e+02 2.3593773181e+02 1.2700000000e+00 0.0000e+00 -1.0000e+00
        4 -1    0    0  501    0 +0.0000000000e+00 -0.0000000000e+00 -1.5574953920e+02 1.5575471698e+02 1.2700000000e+00 0.0000e+00 1.0000e+00
  1000101  2    1    2    0    0 -3.1622170941e+00 +2.7004311636e+01 -1.0568018804e+02 1.6600466852e+02 1.2510002144e+02 3.2010e+02 0.0000e+00
 -1000101  2    1    2    0    0 +3.1622170941e+00 -2.7004311636e+01 +1.8586496256e+02 2.2568778026e+02 1.2509978973e+02 2.2601e+01 0.0000e+00
       11  1    3    3    0    0 -7.5130942865e-02 -2.7444983987e-02 -1.4085210118e-01 1.6197981742e-01 5.1100000000e-04 0.0000e+00 1.0000e+00
      255  1    3    3    0    0 -3.0870861513e+00 +2.7031756620e+01 -1.0553933594e+02 1.6584268871e+02 1.2500000000e+02 0.0000e+00 0.0000e+00
      -11  1    4    4    0    0 +6.3544348228e-02 +2.4000630037e-02 +2.5094410070e-01 2.5997522426e-01 5.1100000000e-04 0.0000e+00 -1.0000e+00
      255  1    4    4    0    0 +3.0986727459e+00 -2.7028312266e+01 +1.8561401846e+02 2.2542780504e+02 1.2500000000e+02 0.0000e+00 0.0000e+00
<mgrwt>
<rscale>  0 0.38339715E+03</rscale>
<asrwt>0</asrwt>
<pdfrwt beam="1">  1        4 0.23962129E-01 0.38339715E+03</pdfrwt>
<pdfrwt beam="2">  1       -4 0.36298248E-01 0.38339715E+03</pdfrwt>
<totfact> 0.23120357E+02</totfact>
</mgrwt>
</event>
<event>
 8      1 +1.6198320e-01 3.63929500e+02 7.81860800e-03 1.05703900e-01
        2 -1    0    0  501    0 +0.0000000000e+00 +0.0000000000e+00 +3.0980713273e+03 3.0980713273e+03 2.5500000000e-03 0.0000e+00 1.0000e+00
       -2 -1    0    0    0  501 -0.0000000000e+00 -0.0000000000e+00 -1.0687671561e+01 1.0687671866e+01 2.5500000000e-03 0.0000e+00 -1.0000e+00
  1000101  2    1    2    0    0 -1.3985148088e+01 +4.6171012348e+00 +2.6654308022e+03 2.6684055629e+03 1.2509990087e+02 1.2805e+02 0.0000e+00
 -1000101  2    1    2    0    0 +1.3985148088e+01 -4.6171012348e+00 +4.2195285355e+02 4.4035343620e+02 1.2510010459e+02 1.1343e+02 0.0000e+00
       11  1    3    3    0    0 +6.1655505347e-02 -1.3230898558e-02 +3.3580435657e+00 3.3586356320e+00 5.1100000000e-04 0.0000e+00 1.0000e+00
      255  1    3    3    0    0 -1.4046803593e+01 +4.6303321333e+00 +2.6620727586e+03 2.6650469273e+03 1.2500000000e+02 0.0000e+00 0.0000e+00
      -11  1    4    4    0    0 +2.6802067318e-02 -9.4148743323e-02 +4.9478521846e-01 5.0437586204e-01 5.1100000000e-04 0.0000e+00 -1.0000e+00
      255  1    4    4    0    0 +1.3958346021e+01 -4.5229524914e+00 +4.2145806833e+02 4.3984906034e+02 1.2500000000e+02 0.0000e+00 0.0000e+00
<mgrwt>
<rscale>  0 0.36392949E+03</rscale>
<asrwt>0</asrwt>
<pdfrwt beam="1">  1        2 0.47662601E+00 0.36392949E+03</pdfrwt>
<pdfrwt beam="2">  1       -2 0.16442584E-02 0.36392949E+03</pdfrwt>
<totfact> 0.18558061E+03</totfact>
</mgrwt>
</event>
<event>
 8      1 +1.6198320e-01 3.33779800e+02 7.81860800e-03 1.06947700e-01
        2 -1    0    0  501    0 +0.0000000000e+00 +0.0000000000e+00 +1.5620626358e+03 1.5620626358e+03 2.5500000000e-03 0.0000e+00 1.0000e+00
       -2 -1    0    0    0  501 -0.0000000000e+00 -0.0000000000e+00 -1.7830422107e+01 1.7830422289e+01 2.5500000000e-03 0.0000e+00 -1.0000e+00
  1000101  2    1    2    0    0 -7.6348291178e+01 +6.5109484433e+01 +9.9076572293e+02 1.0036609367e+03 1.2510096554e+02 3.4081e+02 0.0000e+00
 -1000101  2    1    2    0    0 +7.6348291178e+01 -6.5109484433e+01 +5.5346649073e+02 5.7623212136e+02 1.2509993926e+02 1.3226e+02 0.0000e+00
       11  1    3    3    0    0 -1.4329637613e-01 +1.2988952268e-01 +1.5445628230e+00 1.5566244617e+00 5.1100000000e-04 0.0000e+00 1.0000e+00
      255  1    3    3    0    0 -7.6204994802e+01 +6.4979594911e+01 +9.8922116010e+02 1.0021043122e+03 1.2500000000e+02 0.0000e+00 0.0000e+00
      -11  1    4    4    0    0 +1.0338138675e-01 +2.6010750246e-02 +2.3276626949e-01 2.5601692832e-01 5.1100000000e-04 0.0000e+00 -1.0000e+00
      255  1    4    4    0    0 +7.6244909792e+01 -6.5135495184e+01 +5.5323372446e+02 5.7597610443e+02 1.2500000000e+02 0.0000e+00 0.0000e+00
<mgrwt>
<rscale>  0 0.33377979E+03</rscale>
<asrwt>0</asrwt>
<pdfrwt beam="1">  1        2 0.24031740E+00 0.33377979E+03</pdfrwt>
<pdfrwt beam="2">  1       -2 0.27431410E-02 0.33377979E+03</pdfrwt>
<totfact> 0.61331675E+03</totfact>
</mgrwt>
</event>
<event>
 8      1 +1.6198320e-01 3.19234800e+02 7.81860800e-03 1.07600200e-01
       -2 -1    0    0    0  501 -0.0000000000e+00 +0.0000000000e+00 +2.3530454890e+01 2.3530455028e+01 2.5500000000e-03 0.0000e+00 -1.0000e+00
        2 -1    0    0  501    0 +0.0000000000e+00 -0.0000000000e+00 -1.0827549412e+03 1.0827549412e+03 2.5500000000e-03 0.0000e+00 1.0000e+00
  1000101  2    1    2    0    0 -5.4498052307e+01 +7.8066166314e+01 -4.3386895825e+02 4.6147228860e+02 1.2510010465e+02 1.5323e+02 0.0000e+00
 -1000101  2    1    2    0    0 +5.4498052307e+01 -7.8066166314e+01 -6.2535552801e+02 6.4481310759e+02 1.2510013298e+02 2.8645e+01 0.0000e+00
       11  1    3    3    0    0 +5.8060935217e-02 +1.6746585585e-02 -9.6817488223e-02 1.1412890727e-01 5.1100000000e-04 0.0000e+00 1.0000e+00
      255  1    3    3    0    0 -5.4556113243e+01 +7.8049419729e+01 -4.3377214076e+02 4.6135815969e+02 1.2500000000e+02 0.0000e+00 0.0000e+00
      -11  1    4    4    0    0 +9.8458014195e-02 +2.4657095902e-02 -3.9256303505e-01 4.0547250283e-01 5.1100000000e-04 0.0000e+00 -1.0000e+00
      255  1    4    4    0    0 +5.4399594293e+01 -7.8090823410e+01 -6.2496296498e+02 6.4440763509e+02 1.2500000000e+02 0.0000e+00 0.0000e+00
<mgrwt>
<rscale>  0 0.31923481E+03</rscale>
<asrwt>0</asrwt>
<pdfrwt beam="1">  1        2 0.16657764E+00 0.31923481E+03</pdfrwt>
<pdfrwt beam="2">  1       -2 0.36200708E-02 0.31923481E+03</pdfrwt>
<totfact> 0.74934014E+03</totfact>
</mgrwt>
</event>
<event>
 8      1 +1.6198320e-01 3.41060000e+02 7.81860800e-03 1.06634500e-01
        1 -1    0    0  501    0 +0.0000000000e+00 +0.0000000000e+00 +1.1909834029e+02 1.1909834039e+02 5.0400000000e-03 0.0000e+00 -1.0000e+00
       -1 -1    0    0    0  501 -0.0000000000e+00 -0.0000000000e+00 -2.4417207603e+02 2.4417207608e+02 5.0400000000e-03 0.0000e+00 1.0000e+00
  1000101  2    1    2    0    0 +1.3244712976e+01 +1.0133277958e+02 -1.2074574404e+02 2.0167619726e+02 1.2509995682e+02 5.7076e+01 0.0000e+00
 -1000101  2    1    2    0    0 -1.3244712976e+01 -1.0133277958e+02 -4.3279917017e+00 1.6159421922e+02 1.2510078151e+02 1.8023e+01 0.0000e+00
       11  1    3    3    0    0 -6.1076114694e-02 +1.6476178828e-01 -1.3370856199e-01 2.2080529734e-01 5.1100000000e-04 0.0000e+00 1.0000e+00
      255  1    3    3    0    0 +1.3305789091e+01 +1.0116801779e+02 -1.2061203548e+02 2.0145539196e+02 1.2500000000e+02 0.0000e+00 0.0000e+00
      -11  1    4    4    0    0 -3.0514550043e-02 -1.5078595720e-01 +7.8977041819e-02 1.7293113343e-01 5.1100000000e-04 0.0000e+00 -1.0000e+00
      255  1    4    4    0    0 -1.3214198426e+01 -1.0118199362e+02 -4.4069687435e+00 1.6142128808e+02 1.2500000000e+02 0.0000e+00 0.0000e+00
<mgrwt>
<rscale>  0 0.34106005E+03</rscale>
<asrwt>0</asrwt>
<pdfrwt beam="1">  1        1 0.18322822E-01 0.34106005E+03</pdfrwt>
<pdfrwt beam="2">  1       -1 0.37564935E-01 0.34106005E+03</pdfrwt>
<totfact> 0.19827575E+03</totfact>
</mgrwt>
</event>
<event>
 8      1 +1.6198320e-01 2.77694200e+02 7.81860800e-03 1.09695500e-01
        2 -1    0    0  501    0 +0.0000000000e+00 +0.0000000000e+00 +1.8775040960e+03 1.8775040960e+03 2.5500000000e-03 0.0000e+00 1.0000e+00
       -2 -1    0    0    0  501 -0.0000000000e+00 -0.0000000000e+00 -1.0268160179e+01 1.0268160496e+01 2.5500000000e-03 0.0000e+00 -1.0000e+00
  1000101  2    1    2    0    0 -4.4486515477e+01 +2.6126712342e+01 +7.2223920975e+02 7.3480688470e+02 1.2510006610e+02 1.2365e+01 0.0000e+00
 -1000101  2    1    2    0    0 +4.4486515477e+01 -2.6126712342e+01 +1.1449967260e+03 1.1529653718e+03 1.2509992288e+02 1.2505e+02 0.0000e+00
       11  1    3    3    0    0 +6.7974959397e-02 +1.6909407841e-02 +2.7282733259e-01 2.8167629951e-01 5.1100000000e-04 0.0000e+00 1.0000e+00
      255  1    3    3    0    0 -4.4554490437e+01 +2.6109802934e+01 +7.2196638242e+02 7.3452520840e+02 1.2500000000e+02 0.0000e+00 0.0000e+00
      -11  1    4    4    0    0 +1.5605483721e-02 -6.0070252277e-02 +1.5871741067e-01 1.7042137162e-01 5.1100000000e-04 0.0000e+00 -1.0000e+00
      255  1    4    4    0    0 +4.4470909994e+01 -2.6066642090e+01 +1.1448380086e+03 1.1527949504e+03 1.2500000000e+02 0.0000e+00 0.0000e+00
<mgrwt>
<rscale>  0 0.27769417E+03</rscale>
<asrwt>0</asrwt>
<pdfrwt beam="1">  1        2 0.28884651E+00 0.27769417E+03</pdfrwt>
<pdfrwt beam="2">  1       -2 0.15797185E-02 0.27769417E+03</pdfrwt>
<totfact> 0.94248516E+03</totfact>
</mgrwt>
</event>
<event>
 8      1 +1.6198320e-01 6.62497000e+02 7.81860800e-03 9.78360800e-02
        2 -1    0    0  501    0 +0.0000000000e+00 +0.0000000000e+00 +1.3272474383e+02 1.3272474385e+02 2.5500000000e-03 0.0000e+00 1.0000e+00
       -2 -1    0    0    0  501 -0.0000000000e+00 -0.0000000000e+00 -8.2671518274e+02 8.2671518274e+02 2.5500000000e-03 0.0000e+00 -1.0000e+00
  1000101  2    1    2    0    0 +8.8183242689e+01 +1.8830327874e+02 -2.0451321103e+01 2.4352138513e+02 1.2509995766e+02 3.7464e+01 0.0000e+00
 -1000101  2    1    2    0    0 -8.8183242689e+01 -1.8830327874e+02 -6.7353911781e+02 7.1591854146e+02 1.2509998287e+02 5.6018e+01 0.0000e+00
       11  1    3    3    0    0 +4.6380428849e-02 -9.6981468762e-03 +3.3165811124e-02 5.7839695549e-02 5.1100000000e-04 0.0000e+00 1.0000e+00
      255  1    3    3    0    0 +8.8136862261e+01 +1.8831297688e+02 -2.0484486914e+01 2.4346354544e+02 1.2500000000e+02 0.0000e+00 0.0000e+00
      -11  1    4    4    0    0 -1.0765426800e-01 -2.6389057343e-01 -1.0494014580e+00 1.0874149886e+00 5.1100000000e-04 0.0000e+00 -1.0000e+00
      255  1    4    4    0    0 -8.8075588421e+01 -1.8803938816e+02 -6.7248971635e+02 7.1483112647e+02 1.2500000000e+02 0.0000e+00 0.0000e+00
<mgrwt>
<rscale>  0 0.66249698E+03</rscale>
<asrwt>0</asrwt>
<pdfrwt beam="1">  1        2 0.20419192E-01 0.66249698E+03</pdfrwt>
<pdfrwt beam="2">  1       -2 0.12718695E+00 0.66249698E+03</pdfrwt>
<totfact> 0.12888586E+02</totfact>
</mgrwt>
</event>
<event>
 8      1 +1.6198320e-01 3.02453500e+02 7.81860800e-03 1.08402100e-01
        2 -1    0    0  501    0 +0.0000000000e+00 +0.0000000000e+00 +1.6534196054e+03 1.6534196054e+03 2.5500000000e-03 0.0000e+00 1.0000e+00
       -2 -1    0    0    0  501 -0.0000000000e+00 -0.0000000000e+00 -1.3831651115e+01 1.3831651350e+01 2.5500000000e-03 0.0000e+00 -1.0000e+00
  1000101  2    1    2    0    0 +4.9141424651e+01 -6.9672607487e+00 +4.3963314508e+02 4.5977250440e+02 1.2510008478e+02 1.9807e+01 0.0000e+00
 -1000101  2    1    2    0    0 -4.9141424651e+01 +6.9672607487e+00 +1.1999548092e+03 1.2074787523e+03 1.2509984374e+02 1.2968e+02 0.0000e+00
       11  1    3    3    0    0 +4.9696616719e-02 -1.0343122687e-01 +4.4908299410e-01 4.6351221032e-01 5.1100000000e-04 0.0000e+00 1.0000e+00
      255  1    3    3    0    0 +4.9091728034e+01 -6.8638295218e+00 +4.3918406209e+02 4.5930899219e+02 1.2500000000e+02 0.0000e+00 0.0000e+00
      -11  1    4    4    0    0 -1.1533467709e-01 +5.1904833930e-02 +7.4102085511e-01 7.5173690102e-01 5.1100000000e-04 0.0000e+00 -1.0000e+00
      255  1    4    4    0    0 -4.9026089974e+01 +6.9153559148e+00 +1.1992137883e+03 1.2067270154e+03 1.2500000000e+02 0.0000e+00 0.0000e+00
<mgrwt>
<rscale>  0 0.30245346E+03</rscale>
<asrwt>0</asrwt>
<pdfrwt beam="1">  1        2 0.25437208E+00 0.30245346E+03</pdfrwt>
<pdfrwt beam="2">  1       -2 0.21279478E-02 0.30245346E+03</pdfrwt>
<totfact> 0.79879117E+03</totfact>
</mgrwt>
</event>
<event>
 8      1 +1.6198320e-01 3.06183900e+02 7.81860800e-03 1.08219000e-01
       -1 -1    0    0    0  501 -0.0000000000e+00 +0.0000000000e+00 +6.7158170979e+01 6.7158171168e+01 5.0400000000e-03 0.0000e+00 -1.0000e+00
        1 -1    0    0  501    0 +0.0000000000e+00 -0.0000000000e+00 -3.4898431487e+02 3.4898431490e+02 5.0400000000e-03 0.0000e+00 1.0000e+00
  1000101  2    1    2    0    0 -1.5687352771e+01 +8.5968414799e+01 -1.2423104180e+02 1.9677318660e+02 1.2509865641e+02 1.5764e+02 0.0000e+00
 -1000101  2    1    2    0    0 +1.5687352771e+01 -8.5968414799e+01 -1.5759510209e+02 2.1936929948e+02 1.2510000788e+02 8.4112e+01 0.0000e+00
       11  1    3    3    0    0 +5.7722828130e-02 +6.7710254756e-02 -1.8198112145e-01 2.0256849008e-01 5.1100000000e-04 0.0000e+00 1.0000e+00
      255  1    3    3    0    0 -1.5745075599e+01 +8.5900704545e+01 -1.2404906068e+02 1.9657061811e+02 1.2500000000e+02 0.0000e+00 0.0000e+00
      -11  1    4    4    0    0 +8.7052483112e-03 +3.0097374394e-02 +1.5277538015e-02 3.4861118493e-02 5.1100000000e-04 0.0000e+00 -1.0000e+00
      255  1    4    4    0    0 +1.5678647523e+01 -8.5998512174e+01 -1.5761037962e+02 2.1933443836e+02 1.2500000000e+02 0.0000e+00 0.0000e+00
<mgrwt>
<rscale>  0 0.30618392E+03</rscale>
<asrwt>0</asrwt>
<pdfrwt beam="1">  1        1 0.53689894E-01 0.30618392E+03</pdfrwt>
<pdfrwt beam="2">  1       -1 0.10332027E-01 0.30618392E+03</pdfrwt>
<totfact> 0.41792509E+03</totfact>
</mgrwt>
</event>
<event>
 8      1 +1.6198320e-01 3.65639200e+02 7.81860800e-03 1.05637300e-01
       -2 -1    0    0    0  501 -0.0000000000e+00 +0.0000000000e+00 +1.1862313550e+01 1.1862313824e+01 2.5500000000e-03 0.0000e+00 -1.0000e+00
        2 -1    0    0  501    0 +0.0000000000e+00 -0.0000000000e+00 -2.8175787108e+03 2.8175787108e+03 2.5500000000e-03 0.0000e+00 1.0000e+00
  1000101  2    1    2    0    0 +1.1821298211e+02 +9.8507801079e+00 -9.3204787427e+02 9.4785789186e+02 1.2509994492e+02 1.6006e+02 0.0000e+00
 -1000101  2    1    2    0    0 -1.1821298211e+02 -9.8507801079e+00 -1.8736685230e+03 1.8815831328e+03 1.2509997799e+02 1.0010e+02 0.0000e+00
       11  1    3    3    0    0 +1.7528468160e-01 +5.4748872772e-02 -1.4324046985e+00 1.4441279860e+00 5.1100000000e-04 0.0000e+00 1.0000e+00
      255  1    3    3    0    0 +1.1803769743e+02 +9.7960312352e+00 -9.3061546957e+02 9.4641376387e+02 1.2500000000e+02 0.0000e+00 0.0000e+00
      -11  1    4    4    0    0 -1.2345759246e-01 +3.6377390363e-02 -7.4110227811e-01 7.5219541305e-01 5.1100000000e-04 0.0000e+00 -1.0000e+00
      255  1    4    4    0    0 -1.1808952452e+02 -9.8871574983e+00 -1.8729274207e+03 1.8808309373e+03 1.2500000000e+02 0.0000e+00 0.0000e+00
<mgrwt>
<rscale>  0 0.36563918E+03</rscale>
<asrwt>0</asrwt>
<pdfrwt beam="1">  1        2 0.43347311E+00 0.36563918E+03</pdfrwt>
<pdfrwt beam="2">  1       -2 0.18249736E-02 0.36563918E+03</pdfrwt>
<totfact> 0.23340875E+03</totfact>
</mgrwt>
</event>
<event>
 8      1 +1.6198320e-01 2.67870900e+02 7.81860800e-03 1.10250400e-01
       -2 -1    0    0    0  501 -0.0000000000e+00 +0.0000000000e+00 +3.0444380710e+02 3.0444380711e+02 2.5500000000e-03 0.0000e+00 -1.0000e+00
        2 -1    0    0  501    0 +0.0000000000e+00 -0.0000000000e+00 -5.8922877194e+01 5.8922877249e+01 2.5500000000e-03 0.0000e+00 1.0000e+00
  1000101  2    1    2    0    0 -2.0819216559e+01 +2.9265835666e+01 +7.9890963655e+01 1.5271716304e+02 1.2510010750e+02 7.7156e+01 0.0000e+00
 -1000101  2    1    2    0    0 +2.0819216559e+01 -2.9265835666e+01 +1.6562996625e+02 2.1064952132e+02 1.2509998481e+02 5.3810e+01 0.0000e+00
       11  1    3    3    0    0 -7.8288101950e-02 -3.3573823326e-02 -1.9184191142e-03 8.5206631040e-02 5.1100000000e-04 0.0000e+00 1.0000e+00
      255  1    3    3    0    0 -2.0740928457e+01 +2.9299409489e+01 +7.9892882074e+01 1.5263195640e+02 1.2500000000e+02 0.0000e+00 0.0000e+00
      -11  1    4    4    0    0 -8.0824193445e-02 -3.3681381709e-02 +7.7103143840e-02 1.1667108310e-01 5.1100000000e-04 0.0000e+00 -1.0000e+00
      255  1    4    4    0    0 +2.0900040752e+01 -2.9232154284e+01 +1.6555286310e+02 2.1053285024e+02 1.2500000000e+02 0.0000e+00 0.0000e+00
<mgrwt>
<rscale>  0 0.26787090E+03</rscale>
<asrwt>0</asrwt>
<pdfrwt beam="1">  1        2 0.90650581E-02 0.26787090E+03</pdfrwt>
<pdfrwt beam="2">  1       -2 0.46837508E-01 0.26787090E+03</pdfrwt>
<totfact> 0.31570361E+03</totfact>
</mgrwt>
</event>
<event>
 8      1 +1.6198320e-01 2.88494200e+02 7.81860800e-03 1.09113800e-01
       -2 -1    0    0    0  501 -0.0000000000e+00 +0.0000000000e+00 +4.0094120679e+01 4.0094120760e+01 2.5500000000e-03 0.0000e+00 1.0000e+00
        2 -1    0    0  501    0 +0.0000000000e+00 -0.0000000000e+00 -5.1895945914e+02 5.1895945914e+02 2.5500000000e-03 0.0000e+00 -1.0000e+00
  1000101  2    1    2    0    0 -3.2823596639e+01 +6.0746716378e+01 -2.7768710060e+02 3.1229421498e+02 1.2509995532e+02 6.0492e+00 0.0000e+00
 -1000101  2    1    2    0    0 +3.2823596639e+01 -6.0746716378e+01 -2.0117823785e+02 2.4675936493e+02 1.2509975518e+02 2.7974e+00 0.0000e+00
       11  1    3    3    0    0 +5.6647973367e-02 +1.0393575108e-01 -2.4829682340e-01 2.7506945826e-01 5.1100000000e-04 0.0000e+00 1.0000e+00
      255  1    3    3    0    0 -3.2880244612e+01 +6.0642780627e+01 -2.7743880378e+02 3.1201914552e+02 1.2500000000e+02 0.0000e+00 0.0000e+00
      -11  1    4    4    0    0 +9.1884323461e-02 -2.4049465403e-02 -2.8977136309e-01 3.0494066582e-01 5.1100000000e-04 0.0000e+00 -1.0000e+00
      255  1    4    4    0    0 +3.2731712315e+01 -6.0722666912e+01 -2.0088846649e+02 2.4645442426e+02 1.2500000000e+02 0.0000e+00 0.0000e+00
<mgrwt>
<rscale>  0 0.28849418E+03</rscale>
<asrwt>0</asrwt>
<pdfrwt beam="1">  1        2 0.79839912E-01 0.28849418E+03</pdfrwt>
<pdfrwt beam="2">  1       -2 0.61683266E-02 0.28849418E+03</pdfrwt>
<totfact> 0.84362069E+03</totfact>
</mgrwt>
</event>
<event>
 8      1 +1.6198320e-01 4.49857900e+02 7.81860800e-03 1.02776400e-01
        1 -1    0    0  501    0 +0.0000000000e+00 +0.0000000000e+00 +2.8624899687e+03 2.8624899687e+03 5.0400000000e-03 0.0000e+00 -1.0000e+00
       -1 -1    0    0    0  501 -0.0000000000e+00 -0.0000000000e+00 -1.7674486543e+01 1.7674487262e+01 5.0400000000e-03 0.0000e+00 1.0000e+00
  1000101  2    1    2    0    0 +1.7446253250e+02 +2.3999316296e+01 +1.0210503078e+03 1.0436507572e+03 1.2510007794e+02 5.8414e+01 0.0000e+00
 -1000101  2    1    2    0    0 -1.7446253250e+02 -2.3999316296e+01 +1.8237651743e+03 1.8365136987e+03 1.2510000864e+02 3.3372e+00 0.0000e+00
       11  1    3    3    0    0 +2.7442045039e-01 -2.4039174274e-02 +1.1733463570e+00 1.2052495178e+00 5.1100000000e-04 0.0000e+00 1.0000e+00
      255  1    3    3    0    0 +1.7418811205e+02 +2.4023355471e+01 +1.0198769615e+03 1.0424455077e+03 1.2500000000e+02 0.0000e+00 0.0000e+00
      -11  1    4    4    0    0 -2.1186808116e-01 +5.8660372187e-02 +1.5873603961e+00 1.6025112828e+00 5.1100000000e-04 0.0000e+00 -1.0000e+00
      255  1    4    4    0    0 -1.7425066442e+02 -2.4057976669e+01 +1.8221778139e+03 1.8349111874e+03 1.2500000000e+02 0.0000e+00 0.0000e+00
<mgrwt>
<rscale>  0 0.44985794E+03</rscale>
<asrwt>0</asrwt>
<pdfrwt beam="1">  1        1 0.44038337E+00 0.44985794E+03</pdfrwt>
<pdfrwt beam="2">  1       -1 0.27191500E-02 0.44985794E+03</pdfrwt>
<totfact> 0.38250412E+02</totfact>
</mgrwt>
</event>
<event>
 8      1 +1.6198320e-01 3.31888900e+02 7.81860800e-03 1.07030400e-01
        2 -1    0    0  501    0 +0.0000000000e+00 +0.0000000000e+00 +1.8483571599e+03 1.8483571599e+03 2.5500000000e-03 0.0000e+00 1.0000e+00
       -2 -1    0    0    0  501 -0.0000000000e+00 -0.0000000000e+00 -1.4898401638e+01 1.4898401856e+01 2.5500000000e-03 0.0000e+00 -1.0000e+00
  1000101  2    1    2    0    0 -8.0692226162e+01 -4.4200288797e+01 +5.8828649911e+02 6.0843727827e+02 1.2510002265e+02 2.1691e+01 0.0000e+00
 -1000101  2    1    2    0    0 +8.0692226162e+01 +4.4200288797e+01 +1.2451722591e+03 1.2548182835e+03 1.2510023464e+02 1.6621e+01 0.0000e+00
       11  1    3    3    0    0 -6.7667572344e-02 -4.4547972788e-02 +8.7659421564e-01 8.8033010982e-01 5.1100000000e-04 0.0000e+00 1.0000e+00
      255  1    3    3    0    0 -8.0624558589e+01 -4.4155740824e+01 +5.8740990489e+02 6.0755694816e+02 1.2500000000e+02 0.0000e+00 0.0000e+00
      -11  1    4    4    0    0 +3.9336394262e-02 -1.7648232290e-02 +7.6543909409e-02 8.7852394423e-02 5.1100000000e-04 0.0000e+00 -1.0000e+00
      255  1    4    4    0    0 +8.0652889767e+01 +4.4217937029e+01 +1.2450957152e+03 1.2547304311e+03 1.2500000000e+02 0.0000e+00 0.0000e+00
<mgrwt>
<rscale>  0 0.33188894E+03</rscale>
<asrwt>0</asrwt>
<pdfrwt beam="1">  1        2 0.28436238E+00 0.33188894E+03</pdfrwt>
<pdfrwt beam="2">  1       -2 0.22920639E-02 0.33188894E+03</pdfrwt>
<totfact> 0.56459295E+03</totfact>
</mgrwt>
</event>
<event>
 8      1 +1.6198320e-01 3.34170300e+02 7.81860800e-03 1.06930600e-01
       -2 -1    0    0    0  501 -0.0000000000e+00 +0.0000000000e+00 +2.7693685953e+01 2.7693686070e+01 2.5500000000e-03 0.0000e+00 -1.0000e+00
        2 -1    0    0  501    0 +0.0000000000e+00 -0.0000000000e+00 -1.0080800137e+03 1.0080800137e+03 2.5500000000e-03 0.0000e+00 1.0000e+00
  1000101  2    1    2    0    0 +9.1225285750e+01 +6.1312658966e+01 -4.4790235516e+02 4.7785751693e+02 1.2509992733e+02 7.5087e+00 0.0000e+00
 -1000101  2    1    2    0    0 -9.1225285750e+01 -6.1312658966e+01 -5.3248397256e+02 5.5791618282e+02 1.2509992449e+02 9.9646e+01 0.0000e+00
       11  1    3    3    0    0 +1.2143091321e-01 +2.6510089267e-02 -6.5466762334e-01 6.6636192094e-01 5.1100000000e-04 0.0000e+00 1.0000e+00
      255  1    3    3    0    0 +9.1103854837e+01 +6.1286148877e+01 -4.4724768754e+02 4.7719115501e+02 1.2500000000e+02 0.0000e+00 0.0000e+00
      -11  1    4    4    0    0 -3.8936148963e-03 -9.6657491402e-02 -1.6646232673e-01 1.9252999304e-01 5.1100000000e-04 0.0000e+00 -1.0000e+00
      255  1    4    4    0    0 -9.1221392135e+01 -6.1216001475e+01 -5.3231751024e+02 5.5772365283e+02 1.2500000000e+02 0.0000e+00 0.0000e+00
<mgrwt>
<rscale>  0 0.33417032E+03</rscale>
<asrwt>0</asrwt>
<pdfrwt beam="1">  1        2 0.15508921E+00 0.33417032E+03</pdfrwt>
<pdfrwt beam="2">  1       -2 0.42605678E-02 0.33417032E+03</pdfrwt>
<totfact> 0.65065462E+03</totfact>
</mgrwt>
</event>
<event>
 8      1 +1.6198320e-01 2.83502800e+02 7.81860800e-03 1.09379100e-01
       -1 -1    0    0    0  501 -0.0000000000e+00 +0.0000000000e+00 +2.3553467526e+01 2.3553468065e+01 5.0400000000e-03 0.0000e+00 -1.0000e+00
        1 -1    0    0  501    0 +0.0000000000e+00 -0.0000000000e+00 -8.5310012994e+02 8.5310012996e+02 5.0400000000e-03 0.0000e+00 1.0000e+00
  1000101  2    1    2    0    0 +3.3721808216e+01 +3.6219813038e+01 -2.7668711414e+02 3.0766085598e+02 1.2510159058e+02 3.1619e+00 0.0000e+00
 -1000101  2    1    2    0    0 -3.3721808216e+01 -3.6219813038e+01 -5.5285954828e+02 5.6899274204e+02 1.2510006062e+02 1.0659e+02 0.0000e+00
       11  1    3    3    0    0 -1.1996831369e-02 -4.4267179080e-02 -3.1202026884e-01 3.1537345544e-01 5.1100000000e-04 0.0000e+00 1.0000e+00
      255  1    3    3    0    0 +3.3733805047e+01 +3.6264080218e+01 -2.7637509387e+02 3.0734548253e+02 1.2500000000e+02 0.0000e+00 0.0000e+00
      -11  1    4    4    0    0 +5.4875214267e-02 -6.7236850476e-02 -2.1352291474e-01 2.3048726525e-01 5.1100000000e-04 0.0000e+00 -1.0000e+00
      255  1    4    4    0    0 -3.3776683430e+01 -3.6152576188e+01 -5.5264602536e+02 5.6876225477e+02 1.2500000000e+02 0.0000e+00 0.0000e+00
<mgrwt>
<rscale>  0 0.28350285E+03</rscale>
<asrwt>0</asrwt>
<pdfrwt beam="1">  1        1 0.13124615E+00 0.28350285E+03</pdfrwt>
<pdfrwt beam="2">  1       -1 0.36236111E-02 0.28350285E+03</pdfrwt>
<totfact> 0.59312859E+03</totfact>
</mgrwt>
</event>
<event>
 8      1 +1.6198320e-01 3.85211300e+02 7.81860800e-03 1.04902400e-01
        1 -1    0    0  501    0 +0.0000000000e+00 +0.0000000000e+00 +8.7126753507e+01 8.7126753652e+01 5.0400000000e-03 0.0000e+00 1.0000e+00
       -1 -1    0    0    0  501 -0.0000000000e+00 -0.0000000000e+00 -4.2578117146e+02 4.2578117149e+02 5.0400000000e-03 0.0000e+00 -1.0000e+00
  1000101  2    1    2    0    0 -1.0270996869e+02 +1.0355601032e+02 -1.5177544477e+02 2.4486508521e+02 1.2509971774e+02 2.7418e+01 0.0000e+00
 -1000101  2    1    2    0    0 +1.0270996869e+02 -1.0355601032e+02 -1.8687897318e+02 2.6804283993e+02 1.2510007386e+02 2.0768e+01 0.0000e+00
       11  1    3    3    0    0 -2.4335160502e-02 -4.6390785072e-02 -3.2425785889e-02 6.1611668437e-02 5.1100000000e-04 0.0000e+00 1.0000e+00
      255  1    3    3    0    0 -1.0268563353e+02 +1.0360240110e+02 -1.5174301899e+02 2.4480347354e+02 1.2500000000e+02 0.0000e+00 0.0000e+00
      -11  1    4    4    0    0 -7.5275695240e-03 -5.9556256553e-03 -1.5125002266e-01 1.5155515252e-01 5.1100000000e-04 0.0000e+00 -1.0000e+00
      255  1    4    4    0    0 +1.0271749626e+02 -1.0355005469e+02 -1.8672772315e+02 2.6789128478e+02 1.2500000000e+02 0.0000e+00 0.0000e+00
<mgrwt>
<rscale>  0 0.38521127E+03</rscale>
<asrwt>0</asrwt>
<pdfrwt beam="1">  1        1 0.13404116E-01 0.38521127E+03</pdfrwt>
<pdfrwt beam="2">  1       -1 0.65504794E-01 0.38521127E+03</pdfrwt>
<totfact> 0.10630541E+03</totfact>
</mgrwt>
</event>
<event>
 8      1 +1.6198320e-01 4.33299800e+02 7.81860800e-03 1.03282300e-01
        2 -1    0    0  501    0 +0.0000000000e+00 +0.0000000000e+00 +4.3521507070e+02 4.3521507070e+02 2.5500000000e-03 0.0000e+00 1.0000e+00
       -2 -1    0    0    0  501 -0.0000000000e+00 -0.0000000000e+00 -1.0784823491e+02 1.0784823494e+02 2.5500000000e-03 0.0000e+00 -1.0000e+00
  1000101  2    1    2    0    0 -1.4088272439e+02 -9.2185544536e+01 +9.5713783123e+01 2.3055854874e+02 1.2509995788e+02 1.1869e+02 0.0000e+00
 -1000101  2    1    2    0    0 +1.4088272439e+02 +9.2185544536e+01 +2.3165305266e+02 3.1250475691e+02 1.2509983864e+02 2.8179e+01 0.0000e+00
       11  1    3    3    0    0 -8.2489110734e-02 -1.3344708046e-01 +1.6105599274e-01 2.2483743147e-01 5.1100000000e-04 0.0000e+00 1.0000e+00
      255  1    3    3    0    0 -1.4080023528e+02 -9.2052097456e+01 +9.5552727130e+01 2.3033371131e+02 1.2500000000e+02 0.0000e+00 0.0000e+00
      -11  1    4    4    0    0 +3.3100871515e-02 +1.3891488662e-01 +1.5881275781e-01 2.1357613768e-01 5.1100000000e-04 0.0000e+00 -1.0000e+00
      255  1    4    4    0    0 +1.4084962352e+02 +9.2046629650e+01 +2.3149423990e+02 3.1229118077e+02 1.2500000000e+02 0.0000e+00 0.0000e+00
<mgrwt>
<rscale>  0 0.43329979E+03</rscale>
<asrwt>0</asrwt>
<pdfrwt beam="1">  1        2 0.66956165E-01 0.43329979E+03</pdfrwt>
<pdfrwt beam="2">  1       -2 0.16592036E-01 0.43329979E+03</pdfrwt>
<totfact> 0.21158527E+03</totfact>
</mgrwt>
</event>
<event>
 8      1 +1.6198320e-01 3.44304100e+02 7.81860800e-03 1.06497700e-01
        1 -1    0    0  501    0 +0.0000000000e+00 +0.0000000000e+00 +1.0864259310e+03 1.0864259310e+03 5.0400000000e-03 0.0000e+00 1.0000e+00
       -1 -1    0    0    0  501 -0.0000000000e+00 -0.0000000000e+00 -2.7278732672e+01 2.7278733137e+01 5.0400000000e-03 0.0000e+00 -1.0000e+00
  1000101  2    1    2    0    0 -5.9199190192e+01 +3.5582261475e+01 +8.4009490056e+02 8.5216199085e+02 1.2509986110e+02 1.1447e+02 0.0000e+00
 -1000101  2    1    2    0    0 +5.9199190192e+01 -3.5582261475e+01 +2.1905229776e+02 2.6154267329e+02 1.2510003736e+02 2.7623e+01 0.0000e+00
       11  1    3    3    0    0 -1.1539519054e-01 +8.1392316825e-02 +5.2624911089e-01 5.4486617354e-01 5.1100000000e-04 0.0000e+00 1.0000e+00
      255  1    3    3    0    0 -5.9083795002e+01 +3.5500869158e+01 +8.3956865145e+02 8.5161712468e+02 1.2500000000e+02 0.0000e+00 0.0000e+00
      -11  1    4    4    0    0 +7.7036379899e-02 -8.6413240784e-02 +3.6332182545e-01 3.8131989455e-01 5.1100000000e-04 0.0000e+00 -1.0000e+00
      255  1    4    4    0    0 +5.9122153812e+01 -3.5495848234e+01 +2.1868897593e+02 2.6116135340e+02 1.2500000000e+02 0.0000e+00 0.0000e+00
<mgrwt>
<rscale>  0 0.34430407E+03</rscale>
<asrwt>0</asrwt>
<pdfrwt beam="1">  1        1 0.16714247E+00 0.34430407E+03</pdfrwt>
<pdfrwt beam="2">  1       -1 0.41967278E-02 0.34430407E+03</pdfrwt>
<totfact> 0.31669929E+03</totfact>
</mgrwt>
</event>
<event>
 8      1 +1.6198320e-01 2.77500800e+02 7.81860800e-03 1.09706200e-01
       -4 -1    0    0    0  501 -0.0000000000e+00 +0.0000000000e+00 +6.2218942489e+01 6.2231902626e+01 1.2700000000e+00 0.0000e+00 -1.0000e+00
        4 -1    0    0  501    0 +0.0000000000e+00 -0.0000000000e+00 -3.0937174609e+02 3.0937435281e+02 1.2700000000e+00 0.0000e+00 1.0000e+00
  1000101  2    1    2    0    0 +1.7343766812e+01 -4.2453034559e+01 -7.1736587521e+01 1.5132483868e+02 1.2509996971e+02 1.0839e+02 0.0000e+00
 -1000101  2    1    2    0    0 -1.7343766812e+01 +4.2453034559e+01 -1.7541621608e+02 2.2028141676e+02 1.2509990934e+02 2.8569e+00 0.0000e+00
       11  1    3    3    0    0 -6.7099134078e-02 -7.5008439859e-02 -1.1171134031e-02 1.0126013629e-01 5.1100000000e-04 0.0000e+00 1.0000e+00
      255  1    3    3    0    0 +1.7410865946e+01 -4.2378026119e+01 -7.1725416387e+01 1.5122357854e+02 1.2500000000e+02 0.0000e+00 0.0000e+00
      -11  1    4    4    0    0 -8.0409490225e-02 +1.9169170461e-02 -2.6610451604e-01 2.7864855606e-01 5.1100000000e-04 0.0000e+00 -1.0000e+00
      255  1    4    4    0    0 -1.7263357321e+01 +4.2433865388e+01 -1.7515011157e+02 2.2000276821e+02 1.2500000000e+02 0.0000e+00 0.0000e+00
<mgrwt>
<rscale>  0 0.27750081E+03</rscale>
<asrwt>0</asrwt>
<pdfrwt beam="1">  1        4 0.47596850E-01 0.27750081E+03</pdfrwt>
<pdfrwt beam="2">  1       -4 0.95733426E-02 0.27750081E+03</pdfrwt>
<totfact> 0.65767089E+02</totfact>
</mgrwt>
</event>
<event>
 8      1 +1.6198320e-01 3.21136300e+02 7.81860800e-03 1.07512800e-01
        2 -1    0    0  501    0 +0.0000000000e+00 +0.0000000000e+00 +9.0645905428e+02 9.0645905429e+02 2.5500000000e-03 0.0000e+00 1.0000e+00
       -2 -1    0    0    0  501 -0.0000000000e+00 -0.0000000000e+00 -2.8442693749e+01 2.8442693863e+01 2.5500000000e-03 0.0000e+00 -1.0000e+00
  1000101  2    1    2    0    0 -2.9897371254e+01 +5.1952257354e+00 +7.1841451993e+02 7.2985632764e+02 1.2509993353e+02 9.3019e+00 0.0000e+00
 -1000101  2    1    2    0    0 +2.9897371254e+01 -5.1952257354e+00 +1.5960184061e+02 2.0504542051e+02 1.2510009500e+02 1.8193e+02 0.0000e+00
       11  1    3    3    0    0 -8.2847110845e-02 +3.6977507557e-02 +2.3137719325e-01 2.4852896515e-01 5.1100000000e-04 0.0000e+00 1.0000e+00
      255  1    3    3    0    0 -2.9814524143e+01 +5.1582482278e+00 +7.1818314273e+02 7.2960779867e+02 1.2500000000e+02 0.0000e+00 0.0000e+00
      -11  1    4    4    0    0 +3.9145260624e-02 -8.1875417033e-02 +2.3389269475e-01 2.5088242092e-01 5.1100000000e-04 0.0000e+00 -1.0000e+00
      255  1    4    4    0    0 +2.9858225994e+01 -5.1133503184e+00 +1.5936794791e+02 2.0479453809e+02 1.2500000000e+02 0.0000e+00 0.0000e+00
<mgrwt>
<rscale>  0 0.32113634E+03</rscale>
<asrwt>0</asrwt>
<pdfrwt beam="1">  1        2 0.13945523E+00 0.32113634E+03</pdfrwt>
<pdfrwt beam="2">  1       -2 0.43757993E-02 0.32113634E+03</pdfrwt>
<totfact> 0.72365854E+03</totfact>
</mgrwt>
</event>
<event>
 8      1 +1.6198320e-01 3.52097300e+02 7.81860800e-03 1.06175700e-01
       -2 -1    0    0    0  501 -0.0000000000e+00 +0.0000000000e+00 +1.9740653910e+01 1.9740654074e+01 2.5500000000e-03 0.0000e+00 1.0000e+00
        2 -1    0    0  501    0 +0.0000000000e+00 -0.0000000000e+00 -1.5700156099e+03 1.5700156099e+03 2.5500000000e-03 0.0000e+00 -1.0000e+00
  1000101  2    1    2    0    0 -3.7052938000e+01 +1.1793488428e+02 -7.3971831249e+02 7.6033859366e+02 1.2510011207e+02 3.0412e+00 0.0000e+00
 -1000101  2    1    2    0    0 +3.7052938000e+01 -1.1793488428e+02 -8.1055664351e+02 8.2941767032e+02 1.2510012932e+02 3.7479e+01 0.0000e+00
       11  1    3    3    0    0 -5.8864074172e-02 +1.4379101750e-01 -3.6416667929e-01 3.9592735113e-01 5.1100000000e-04 0.0000e+00 1.0000e+00
      255  1    3    3    0    0 -3.6994073926e+01 +1.1779109326e+02 -7.3935414581e+02 7.5994266631e+02 1.2500000000e+02 0.0000e+00 0.0000e+00
      -11  1    4    4    0    0 +1.0930880698e-02 -1.6801101786e-01 -1.2325131074e+00 1.2439598094e+00 5.1100000000e-04 0.0000e+00 -1.0000e+00
      255  1    4    4    0    0 +3.7042007119e+01 -1.1776687326e+02 -8.0932413040e+02 8.2817371051e+02 1.2500000000e+02 0.0000e+00 0.0000e+00
<mgrwt>
<rscale>  0 0.35209734E+03</rscale>
<asrwt>0</asrwt>
<pdfrwt beam="1">  1        2 0.24154076E+00 0.35209734E+03</pdfrwt>
<pdfrwt beam="2">  1       -2 0.30370249E-02 0.35209734E+03</pdfrwt>
<totfact> 0.52165704E+03</totfact>
</mgrwt>
</event>
<event>
 8      1 +1.6198320e-01 3.50473800e+02 7.81860800e-03 1.06242100e-01
        2 -1    0    0  501    0 +0.0000000000e+00 +0.0000000000e+00 +8.1543900008e+02 8.1543900008e+02 2.5500000000e-03 0.0000e+00 -1.0000e+00
       -2 -1    0    0    0  501 -0.0000000000e+00 -0.0000000000e+00 -3.7658203134e+01 3.7658203221e+01 2.5500000000e-03 0.0000e+00 1.0000e+00
  1000101  2    1    2    0    0 +1.1264557795e+02 +4.5245924735e+01 +4.3255136863e+02 4.6635491861e+02 1.2509997471e+02 2.9722e+01 0.0000e+00
 -1000101  2    1    2    0    0 -1.1264557795e+02 -4.5245924735e+01 +3.4522942832e+02 3.8674228469e+02 1.2510002660e+02 6.1627e+00 0.0000e+00
       11  1    3    3    0    0 +1.7032172076e-01 +8.3070320186e-02 +3.0728159642e-01 3.6101579921e-01 5.1100000000e-04 0.0000e+00 1.0000e+00
      255  1    3    3    0    0 +1.1247525623e+02 +4.5162854415e+01 +4.3224408703e+02 4.6599390281e+02 1.2500000000e+02 0.0000e+00 0.0000e+00
      -11  1    4    4    0    0 +4.4206803056e-02 -1.2497089914e-02 +7.7017249563e-02 8.9679075287e-02 5.1100000000e-04 0.0000e+00 -1.0000e+00
      255  1    4    4    0    0 -1.1268978476e+02 -4.5233427645e+01 +3.4515241107e+02 3.8665260562e+02 1.2500000000e+02 0.0000e+00 0.0000e+00
<mgrwt>
<rscale>  0 0.35047378E+03</rscale>
<asrwt>0</asrwt>
<pdfrwt beam="1">  1        2 0.12545214E+00 0.35047378E+03</pdfrwt>
<pdfrwt beam="2">  1       -2 0.57935702E-02 0.35047378E+03</pdfrwt>
<totfact> 0.54294692E+03</totfact>
</mgrwt>
</event>
<event>
 8      1 +1.6198320e-01 2.71880000e+02 7.81860800e-03 1.10020800e-01
       -2 -1    0    0    0  501 -0.0000000000e+00 +0.0000000000e+00 +1.7079835883e+02 1.7079835885e+02 2.5500000000e-03 0.0000e+00 -1.0000e+00
        2 -1    0    0  501    0 +0.0000000000e+00 -0.0000000000e+00 -1.0819594720e+02 1.0819594723e+02 2.5500000000e-03 0.0000e+00 1.0000e+00
  1000101  2    1    2    0    0 +3.3272781857e+01 +3.6077837959e+01 +1.0247577267e+01 1.3477270379e+02 1.2509988186e+02 2.2119e+02 0.0000e+00
 -1000101  2    1    2    0    0 -3.3272781857e+01 -3.6077837959e+01 +5.2354834360e+01 1.4422160229e+02 1.2510057347e+02 1.2208e+02 0.0000e+00
       11  1    3    3    0    0 +1.2512796329e-01 +5.3866041193e-02 +3.4964018505e-02 1.4064601418e-01 5.1100000000e-04 0.0000e+00 1.0000e+00
      255  1    3    3    0    0 +3.3147653894e+01 +3.6023971918e+01 +1.0212613249e+01 1.3463205778e+02 1.2500000000e+02 0.0000e+00 0.0000e+00
      -11  1    4    4    0    0 +1.9894358180e-02 +2.3927167590e-02 +1.1373602333e-01 1.1791708511e-01 5.1100000000e-04 0.0000e+00 -1.0000e+00
      255  1    4    4    0    0 -3.3292676215e+01 -3.6101765127e+01 +5.2241098337e+01 1.4410368521e+02 1.2500000000e+02 0.0000e+00 0.0000e+00
<mgrwt>
<rscale>  0 0.27188005E+03</rscale>
<asrwt>0</asrwt>
<pdfrwt beam="1">  1        2 0.16645531E-01 0.27188005E+03</pdfrwt>
<pdfrwt beam="2">  1       -2 0.26276670E-01 0.27188005E+03</pdfrwt>
<totfact> 0.44469000E+03</totfact>
</mgrwt>
</event>
<event>
 8      1 +1.6198320e-01 3.45734900e+02 7.81860800e-03 1.06437900e-01
        2 -1    0    0  501    0 +0.0000000000e+00 +0.0000000000e+00 +1.2534368997e+03 1.2534368997e+03 2.5500000000e-03 0.0000e+00 1.0000e+00
       -2 -1    0    0    0  501 -0.0000000000e+00 -0.0000000000e+00 -2.3840968883e+01 2.3840969020e+01 2.5500000000e-03 0.0000e+00 -1.0000e+00
  1000101  2    1    2    0    0 -1.1137183592e+02 -2.7349841983e+01 +4.9330818110e+02 5.2168448652e+02 1.2510012885e+02 5.1029e+01 0.0000e+00
 -1000101  2    1    2    0    0 +1.1137183592e+02 +2.7349841983e+01 +7.3628774968e+02 7.5559338217e+02 1.2509999663e+02 1.7940e+02 0.0000e+00
       11  1    3    3    0    0 -1.1087190190e-01 +2.9888459722e-02 +6.6727176696e-01 6.7708032814e-01 5.1100000000e-04 0.0000e+00 1.0000e+00
      255  1    3    3    0    0 -1.1126096402e+02 -2.7379730443e+01 +4.9264090933e+02 5.2100740619e+02 1.2500000000e+02 0.0000e+00 0.0000e+00
      -11  1    4    4    0    0 +2.4006493634e-02 -7.0789626728e-02 +4.3813590238e-01 4.4446688636e-01 5.1100000000e-04 0.0000e+00 -1.0000e+00
      255  1    4    4    0    0 +1.1134782943e+02 +2.7420631610e+01 +7.3584961378e+02 7.5514891529e+02 1.2500000000e+02 0.0000e+00 0.0000e+00
<mgrwt>
<rscale>  0 0.34573487E+03</rscale>
<asrwt>0</asrwt>
<pdfrwt beam="1">  1        2 0.19283649E+00 0.34573487E+03</pdfrwt>
<pdfrwt beam="2">  1       -2 0.36678405E-02 0.34573487E+03</pdfrwt>
<totfact> 0.58582251E+03</totfact>
</mgrwt>
</event>
<event>
 8      1 +1.6198320e-01 3.77317100e+02 7.81860800e-03 1.05193000e-01
        2 -1    0    0  501    0 +0.0000000000e+00 +0.0000000000e+00 +4.7037665707e+02 4.7037665707e+02 2.5500000000e-03 0.0000e+00 1.0000e+00
       -2 -1    0    0    0  501 -0.0000000000e+00 -0.0000000000e+00 -7.5667109213e+01 7.5667109256e+01 2.5500000000e-03 0.0000e+00 -1.0000e+00
  1000101  2    1    2    0    0 -1.5992077908e-01 -1.3979583589e+02 +2.2626978515e+02 2.9392298554e+02 1.2509917846e+02 6.5292e+00 0.0000e+00
 -1000101  2    1    2    0    0 +1.5992077908e-01 +1.3979583589e+02 +1.6843976271e+02 2.5212078079e+02 1.2510009249e+02 1.3606e+01 0.0000e+00
       11  1    3    3    0    0 +6.4611434787e-02 -1.2790920228e-01 +7.8385946360e-02 1.6334019481e-01 5.1100000000e-04 0.0000e+00 1.0000e+00
      255  1    3    3    0    0 -2.2453221387e-01 -1.3966792669e+02 +2.2619139920e+02 2.9375964534e+02 1.2500000000e+02 0.0000e+00 0.0000e+00
      -11  1    4    4    0    0 +5.2403997906e-02 +2.3807991854e-01 +2.0046983208e-01 3.1562104065e-01 5.1100000000e-04 0.0000e+00 -1.0000e+00
      255  1    4    4    0    0 +1.0751678118e-01 +1.3955775597e+02 +1.6823929288e+02 2.5180515975e+02 1.2500000000e+02 0.0000e+00 0.0000e+00
<mgrwt>
<rscale>  0 0.37731707E+03</rscale>
<asrwt>0</asrwt>
<pdfrwt beam="1">  1        2 0.72365641E-01 0.37731707E+03</pdfrwt>
<pdfrwt beam="2">  1       -2 0.11641093E-01 0.37731707E+03</pdfrwt>
<totfact> 0.34816225E+03</totfact>
</mgrwt>
</event>
<event>
 8      1 +1.6198320e-01 2.59410000e+02 7.81860800e-03 1.10749800e-01
        2 -1    0    0  501    0 +0.0000000000e+00 +0.0000000000e+00 +1.1317975467e+02 1.1317975470e+02 2.5500000000e-03 0.0000e+00 1.0000e+00
       -2 -1    0    0    0  501 -0.0000000000e+00 -0.0000000000e+00 -1.4864308727e+02 1.4864308729e+02 2.5500000000e-03 0.0000e+00 -1.0000e+00
  1000101  2    1    2    0    0 +2.0896202224e+01 -2.5233880323e+01 -2.7824621384e+01 1.3227848170e+02 1.2509990880e+02 2.3925e+01 0.0000e+00
 -1000101  2    1    2    0    0 -2.0896202224e+01 +2.5233880323e+01 -7.6387112167e+00 1.2954436030e+02 1.2509992563e+02 7.0219e+01 0.0000e+00
       11  1    3    3    0    0 +5.6950470005e-02 -6.2422174109e-02 +5.8851773465e-02 1.0297415314e-01 5.1100000000e-04 0.0000e+00 1.0000e+00
      255  1    3    3    0    0 +2.0839251754e+01 -2.5171458149e+01 -2.7883473157e+01 1.3217550754e+02 1.2500000000e+02 0.0000e+00 0.0000e+00
      -11  1    4    4    0    0 -1.0974160356e-01 +6.3244249103e-02 -4.3637449935e-03 1.2673735829e-01 5.1100000000e-04 0.0000e+00 -1.0000e+00
      255  1    4    4    0    0 -2.0786460621e+01 +2.5170636074e+01 -7.6343474717e+00 1.2941762294e+02 1.2500000000e+02 0.0000e+00 0.0000e+00
<mgrwt>
<rscale>  0 0.25941001E+03</rscale>
<asrwt>0</asrwt>
<pdfrwt beam="1">  1        2 0.17412270E-01 0.25941001E+03</pdfrwt>
<pdfrwt beam="2">  1       -2 0.22868167E-01 0.25941001E+03</pdfrwt>
<totfact> 0.53777309E+03</totfact>
</mgrwt>
</event>
<event>
 8      1 +1.6198320e-01 3.05785000e+02 7.81860800e-03 1.08238400e-01
        2 -1    0    0  501    0 +0.0000000000e+00 +0.0000000000e+00 +1.2274717656e+03 1.2274717656e+03 2.5500000000e-03 0.0000e+00 1.0000e+00
       -2 -1    0    0    0  501 -0.0000000000e+00 -0.0000000000e+00 -1.9044121970e+01 1.9044122140e+01 2.5500000000e-03 0.0000e+00 -1.0000e+00
  1000101  2    1    2    0    0 -6.0508150816e+00 +8.7334875233e+01 +5.7207677539e+02 5.9210286579e+02 1.2509985583e+02 1.3032e+02 0.0000e+00
 -1000101  2    1    2    0    0 +6.0508150816e+00 -8.7334875233e+01 +6.3635086826e+02 6.5441302198e+02 1.2509989212e+02 1.1714e+02 0.0000e+00
       11  1    3    3    0    0 -8.4929877381e-02 +2.6874332740e-02 +5.5717328878e-01 5.6424963330e-01 5.1100000000e-04 0.0000e+00 1.0000e+00
      255  1    3    3    0    0 -5.9658852043e+00 +8.7308000901e+01 +5.7151960211e+02 5.9153861615e+02 1.2500000000e+02 0.0000e+00 0.0000e+00
      -11  1    4    4    0    0 -8.7020804715e-02 -1.0646972958e-01 +6.7473544860e-01 6.8860482897e-01 5.1100000000e-04 0.0000e+00 -1.0000e+00
      255  1    4    4    0    0 +6.1378358864e+00 -8.7228405504e+01 +6.3567613281e+02 6.5372441715e+02 1.2500000000e+02 0.0000e+00 0.0000e+00
<mgrwt>
<rscale>  0 0.30578504E+03</rscale>
<asrwt>0</asrwt>
<pdfrwt beam="1">  1        2 0.18884179E+00 0.30578504E+03</pdfrwt>
<pdfrwt beam="2">  1       -2 0.29298653E-02 0.30578504E+03</pdfrwt>
<totfact> 0.84731340E+03</totfact>
</mgrwt>
</event>
<event>
 8      1 +1.6198320e-01 2.76221700e+02 7.81860800e-03 1.09777100e-01
       -2 -1    0    0    0  501 -0.0000000000e+00 +0.0000000000e+00 +8.5357827182e+01 8.5357827220e+01 2.5500000000e-03 0.0000e+00 -1.0000e+00
        2 -1    0    0  501    0 +0.0000000000e+00 -0.0000000000e+00 -2.2346641289e+02 2.2346641290e+02 2.5500000000e-03 0.0000e+00 1.0000e+00
  1000101  2    1    2    0    0 +1.3002117813e+01 -3.7718838509e+01 -1.1691937452e+02 1.7581782449e+02 1.2509996573e+02 7.7766e+01 0.0000e+00
 -1000101  2    1    2    0    0 -1.3002117813e+01 +3.7718838509e+01 -2.1189211185e+01 1.3300641563e+02 1.2509979249e+02 0.0000e+00 0.0000e+00
       11  1    3    3    0    0 +8.1738432754e-02 -8.2129141105e-02 -1.8221919810e-01 2.1594088192e-01 5.1100000000e-04 0.0000e+00 1.0000e+00
      255  1    3    3    0    0 +1.2920379380e+01 -3.7636709367e+01 -1.1673715532e+02 1.7560188361e+02 1.2500000000e+02 0.0000e+00 0.0000e+00
      -11  1    4    4    0    0 +7.3885056009e-02 -1.0443866143e-03 -6.1423122132e-02 9.6089298563e-02 5.1100000000e-04 0.0000e+00 -1.0000e+00
      255  1    4    4    0    0 -1.3076002869e+01 +3.7719882895e+01 -2.1127788063e+01 1.3291032633e+02 1.2500000000e+02 0.0000e+00 0.0000e+00
<mgrwt>
<rscale>  0 0.27622170E+03</rscale>
<asrwt>0</asrwt>
<pdfrwt beam="1">  1        2 0.34379448E-01 0.27622170E+03</pdfrwt>
<pdfrwt beam="2">  1       -2 0.13131974E-01 0.27622170E+03</pdfrwt>
<totfact> 0.63881732E+03</totfact>
</mgrwt>
</event>
<event>
 8      1 +1.6198320e-01 2.84102900e+02 7.81860800e-03 1.09346900e-01
       -1 -1    0    0    0  501 -0.0000000000e+00 +0.0000000000e+00 +4.1445458088e+02 4.1445458091e+02 5.0400000000e-03 0.0000e+00 -1.0000e+00
        1 -1    0    0  501    0 +0.0000000000e+00 -0.0000000000e+00 -4.8687156817e+01 4.8687157078e+01 5.0400000000e-03 0.0000e+00 1.0000e+00
  1000101  2    1    2    0    0 +3.2354235273e+01 +5.8837623589e+01 +1.7560191001e+02 2.2582005854e+02 1.2509998221e+02 2.0737e+01 0.0000e+00
 -1000101  2    1    2    0    0 -3.2354235273e+01 -5.8837623589e+01 +1.9016551405e+02 2.3732167945e+02 1.2509993730e+02 2.8958e+00 0.0000e+00
       11  1    3    3    0    0 -2.8490681907e-02 -2.0278874388e-02 +1.9269709243e-01 1.9584530185e-01 5.1100000000e-04 0.0000e+00 1.0000e+00
      255  1    3    3    0    0 +3.2382725955e+01 +5.8857902463e+01 +1.7540921292e+02 2.2562421324e+02 1.2500000000e+02 0.0000e+00 0.0000e+00
      -11  1    4    4    0    0 -7.2383936297e-02 -1.4770942562e-01 +1.8823507545e-01 2.4998042604e-01 5.1100000000e-04 0.0000e+00 -1.0000e+00
      255  1    4    4    0    0 -3.2281851337e+01 -5.8689914163e+01 +1.8997727897e+02 2.3707169902e+02 1.2500000000e+02 0.0000e+00 0.0000e+00
<mgrwt>
<rscale>  0 0.28410291E+03</rscale>
<asrwt>0</asrwt>
<pdfrwt beam="1">  1        1 0.74903314E-02 0.28410291E+03</pdfrwt>
<pdfrwt beam="2">  1       -1 0.63762247E-01 0.28410291E+03</pdfrwt>
<totfact> 0.24524763E+03</totfact>
</mgrwt>
</event>
<event>
 8      1 +1.6198320e-01 3.05048100e+02 7.81860800e-03 1.08274400e-01
        2 -1    0    0  501    0 +0.0000000000e+00 +0.0000000000e+00 +4.9330425536e+01 4.9330425602e+01 2.5500000000e-03 0.0000e+00 1.0000e+00
       -2 -1    0    0    0  501 -0.0000000000e+00 -0.0000000000e+00 -4.7158685033e+02 4.7158685033e+02 2.5500000000e-03 0.0000e+00 -1.0000e+00
  1000101  2    1    2    0    0 -3.6554982041e+01 -6.8610470116e+01 -1.4346710829e+02 2.0561240911e+02 1.2509991326e+02 2.5434e+00 0.0000e+00
 -1000101  2    1    2    0    0 +3.6554982041e+01 +6.8610470116e+01 -2.7878931650e+02 3.1530486683e+02 1.2510001089e+02 1.6126e+01 0.0000e+00
       11  1    3    3    0    0 -4.9730770652e-02 -5.1330897992e-02 +1.8499341627e-02 7.3827484041e-02 5.1100000000e-04 0.0000e+00 1.0000e+00
      255  1    3    3    0    0 -3.6505251271e+01 -6.8559139218e+01 -1.4348560763e+02 2.0553858163e+02 1.2500000000e+02 0.0000e+00 0.0000e+00
      -11  1    4    4    0    0 +1.2339607696e-01 +2.7367169614e-02 -1.9586141396e-01 2.3310407200e-01 5.1100000000e-04 0.0000e+00 -1.0000e+00
      255  1    4    4    0    0 +3.6431585965e+01 +6.8583102946e+01 -2.7859345509e+02 3.1507176275e+02 1.2500000000e+02 0.0000e+00 0.0000e+00
<mgrwt>
<rscale>  0 0.30504806E+03</rscale>
<asrwt>0</asrwt>
<pdfrwt beam="1">  1        2 0.75892966E-02 0.30504806E+03</pdfrwt>
<pdfrwt beam="2">  1       -2 0.72551820E-01 0.30504806E+03</pdfrwt>
<totfact> 0.16093588E+03</totfact>
</mgrwt>
</event>
<event>
 8      1 +1.6198320e-01 4.52130300e+02 7.81860800e-03 1.02708900e-01
        2 -1    0    0  501    0 +0.0000000000e+00 +0.0000000000e+00 +4.2137236493e+02 4.2137236494e+02 2.5500000000e-03 0.0000e+00 1.0000e+00
       -2 -1    0    0    0  501 -0.0000000000e+00 -0.0000000000e+00 -1.2128334609e+02 1.2128334612e+02 2.5500000000e-03 0.0000e+00 -1.0000e+00
  1000101  2    1    2    0    0 -1.0082768162e+02 +6.5918302514e+01 +3.2374070327e+02 3.6738195119e+02 1.2510000447e+02 2.0662e+02 0.0000e+00
 -1000101  2    1    2    0    0 +1.0082768162e+02 -6.5918302514e+01 -2.3651684430e+01 1.7527375987e+02 1.2510013883e+02 1.2507e+02 0.0000e+00
       11  1    3    3    0    0 +2.7351290318e-02 +7.2400131364e-02 +8.8953323191e-02 1.1791024948e-01 5.1100000000e-04 0.0000e+00 1.0000e+00
      255  1    3    3    0    0 -1.0085503291e+02 +6.5845902382e+01 +3.2365174995e+02 3.6726404094e+02 1.2500000000e+02 0.0000e+00 0.0000e+00
      -11  1    4    4    0    0 +1.5378686138e-01 +9.0057269128e-04 -7.0168669376e-02 1.6904174942e-01 5.1100000000e-04 0.0000e+00 -1.0000e+00
      255  1    4    4    0    0 +1.0067389476e+02 -6.5919203086e+01 -2.3581515761e+01 1.7510471812e+02 1.2500000000e+02 0.0000e+00 0.0000e+00
<mgrwt>
<rscale>  0 0.45213029E+03</rscale>
<asrwt>0</asrwt>
<pdfrwt beam="1">  1        2 0.64826518E-01 0.45213029E+03</pdfrwt>
<pdfrwt beam="2">  1       -2 0.18658976E-01 0.45213029E+03</pdfrwt>
<totfact> 0.17966342E+03</totfact>
</mgrwt>
</event>
<event>
 8      1 +1.6198320e-01 2.76496100e+02 7.81860800e-03 1.09761800e-01
       -2 -1    0    0    0  501 -0.0000000000e+00 +0.0000000000e+00 +1.4384247173e+02 1.4384247176e+02 2.5500000000e-03 0.0000e+00 -1.0000e+00
        2 -1    0    0  501    0 +0.0000000000e+00 -0.0000000000e+00 -1.3287123540e+02 1.3287123542e+02 2.5500000000e-03 0.0000e+00 1.0000e+00
  1000101  2    1    2    0    0 -1.8907541959e+01 -2.2484068621e+01 +5.6510886548e+01 1.4037997815e+02 1.2510007786e+02 1.7839e+01 0.0000e+00
 -1000101  2    1    2    0    0 +1.8907541959e+01 +2.2484068621e+01 -4.5539650210e+01 1.3633372903e+02 1.2509994982e+02 5.8068e+01 0.0000e+00
       11  1    3    3    0    0 +3.4824444398e-02 +4.5147874063e-02 -3.0824496344e-02 6.4818848774e-02 5.1100000000e-04 0.0000e+00 1.0000e+00
      255  1    3    3    0    0 -1.8942366403e+01 -2.2529216495e+01 +5.6541711045e+01 1.4031515930e+02 1.2500000000e+02 0.0000e+00 0.0000e+00
      -11  1    4    4    0    0 +3.9746343387e-02 -7.3230200963e-02 -6.8924499429e-02 1.0813547933e-01 5.1100000000e-04 0.0000e+00 -1.0000e+00
      255  1    4    4    0    0 +1.8867795616e+01 +2.2557298822e+01 -4.5470725710e+01 1.3622559355e+02 1.2500000000e+02 0.0000e+00 0.0000e+00
<mgrwt>
<rscale>  0 0.27649613E+03</rscale>
<asrwt>0</asrwt>
<pdfrwt beam="1">  1        2 0.20441729E-01 0.27649613E+03</pdfrwt>
<pdfrwt beam="2">  1       -2 0.22129611E-01 0.27649613E+03</pdfrwt>
<totfact> 0.47432282E+03</totfact>
</mgrwt>
</event>
<event>
 8      1 +1.6198320e-01 2.92888600e+02 7.81860800e-03 1.08885100e-01
        2 -1    0    0  501    0 +0.0000000000e+00 +0.0000000000e+00 +1.6496903721e+02 1.6496903723e+02 2.5500000000e-03 0.0000e+00 1.0000e+00
       -2 -1    0    0    0  501 -0.0000000000e+00 -0.0000000000e+00 -1.2999976355e+02 1.2999976357e+02 2.5500000000e-03 0.0000e+00 -1.0000e+00
  1000101  2    1    2    0    0 -2.8632452696e+01 +6.9980004524e+01 +2.6430720020e+01 1.4854499438e+02 1.2510001605e+02 1.7682e+02 0.0000e+00
 -1000101  2    1    2    0    0 +2.8632452696e+01 -6.9980004524e+01 +8.5385536435e+00 1.4642380641e+02 1.2509998324e+02 8.7798e+01 0.0000e+00
       11  1    3    3    0    0 -1.0625003426e-01 +1.3238727022e-01 +3.1446989861e-02 1.7264018475e-01 5.1100000000e-04 0.0000e+00 1.0000e+00
      255  1    3    3    0    0 -2.8526202661e+01 +6.9847617253e+01 +2.6399273030e+01 1.4837235420e+02 1.2500000000e+02 0.0000e+00 0.0000e+00
      -11  1    4    4    0    0 -1.7234282595e-02 -7.6386328209e-02 -8.2458552868e-02 1.1371704224e-01 5.1100000000e-04 0.0000e+00 -1.0000e+00
      255  1    4    4    0    0 +2.8649686978e+01 -6.9903618195e+01 +8.6210121964e+00 1.4631008937e+02 1.2500000000e+02 0.0000e+00 0.0000e+00
<mgrwt>
<rscale>  0 0.29288862E+03</rscale>
<asrwt>0</asrwt>
<pdfrwt beam="1">  1        2 0.25379852E-01 0.29288862E+03</pdfrwt>
<pdfrwt beam="2">  1       -2 0.19999964E-01 0.29288862E+03</pdfrwt>
<totfact> 0.44301013E+03</totfact>
</mgrwt>
</event>
<event>
 8      1 +1.6198320e-01 3.23778600e+02 7.81860800e-03 1.07392300e-01
        2 -1    0    0  501    0 +0.0000000000e+00 +0.0000000000e+00 +5.7913181274e+02 5.7913181274e+02 2.5500000000e-03 0.0000e+00 1.0000e+00
       -2 -1    0    0    0  501 -0.0000000000e+00 -0.0000000000e+00 -4.5254187410e+01 4.5254187482e+01 2.5500000000e-03 0.0000e+00 -1.0000e+00
  1000101  2    1    2    0    0 -1.2463622670e+01 -7.7954844475e+01 +1.4010342508e+02 2.0374320864e+02 1.2510006267e+02 4.8248e+01 0.0000e+00
 -1000101  2    1    2    0    0 +1.2463622670e+01 +7.7954844475e+01 +3.9377420025e+02 4.2064279158e+02 1.2509971088e+02 1.9553e+01 0.0000e+00
       11  1    3    3    0    0 +7.7380987439e-02 +9.5612566427e-04 +6.6272168794e-02 1.0188715754e-01 5.1100000000e-04 0.0000e+00 1.0000e+00
      255  1    3    3    0    0 -1.2541003657e+01 -7.7955800601e+01 +1.4003715291e+02 2.0364132148e+02 1.2500000000e+02 0.0000e+00 0.0000e+00
      -11  1    4    4    0    0 -1.4867946850e-02 +1.6351799546e-01 +3.3414111257e-01 3.7230328351e-01 5.1100000000e-04 0.0000e+00 -1.0000e+00
      255  1    4    4    0    0 +1.2478490617e+01 +7.7791326480e+01 +3.9344005914e+02 4.2027048830e+02 1.2500000000e+02 0.0000e+00 0.0000e+00
<mgrwt>
<rscale>  0 0.32377856E+03</rscale>
<asrwt>0</asrwt>
<pdfrwt beam="1">  1        2 0.89097196E-01 0.32377856E+03</pdfrwt>
<pdfrwt beam="2">  1       -2 0.69621831E-02 0.32377856E+03</pdfrwt>
<totfact> 0.61920916E+03</totfact>
</mgrwt>
</event>
<event>
 8      1 +1.6198320e-01 3.61598200e+02 7.81860800e-03 1.05795300e-01
        2 -1    0    0  501    0 +0.0000000000e+00 +0.0000000000e+00 +1.5752465546e+03 1.5752465546e+03 2.5500000000e-03 0.0000e+00 1.0000e+00
       -2 -1    0    0    0  501 -0.0000000000e+00 -0.0000000000e+00 -2.0751232792e+01 2.0751232949e+01 2.5500000000e-03 0.0000e+00 -1.0000e+00
  1000101  2    1    2    0    0 -1.2473597634e+02 -3.7949462116e+01 +8.0483318189e+02 8.2486708575e+02 1.2510009203e+02 2.1109e+02 0.0000e+00
 -1000101  2    1    2    0    0 +1.2473597634e+02 +3.7949462116e+01 +7.4966213994e+02 7.7113070181e+02 1.2509999903e+02 5.2689e+01 0.0000e+00
       11  1    3    3    0    0 -1.6296820840e-01 +4.9262092396e-02 +6.7214405629e-01 6.9337095715e-01 5.1100000000e-04 0.0000e+00 1.0000e+00
      255  1    3    3    0    0 -1.2457300813e+02 -3.7998724208e+01 +8.0416103783e+02 8.2417371480e+02 1.2500000000e+02 0.0000e+00 0.0000e+00
      -11  1    4    4    0    0 +1.3805665375e-01 +1.3426609897e-01 +7.6947062825e-01 7.9320384129e-01 5.1100000000e-04 0.0000e+00 -1.0000e+00
      255  1    4    4    0    0 +1.2459791968e+02 +3.7815196017e+01 +7.4889266931e+02 7.7033749797e+02 1.2500000000e+02 0.0000e+00 0.0000e+00
<mgrwt>
<rscale>  0 0.36159816E+03</rscale>
<asrwt>0</asrwt>
<pdfrwt beam="1">  1        2 0.24234570E+00 0.36159816E+03</pdfrwt>
<pdfrwt beam="2">  1       -2 0.31924963E-02 0.36159816E+03</pdfrwt>
<totfact> 0.48087367E+03</totfact>
</mgrwt>
</event>
<event>
 8      1 +1.6198320e-01 3.03607400e+02 7.81860800e-03 1.08345100e-01
       -2 -1    0    0    0  501 -0.0000000000e+00 +0.0000000000e+00 +1.8508160059e+01 1.8508160234e+01 2.5500000000e-03 0.0000e+00 -1.0000e+00
        2 -1    0    0  501    0 +0.0000000000e+00 -0.0000000000e+00 -1.2450921088e+03 1.2450921088e+03 2.5500000000e-03 0.0000e+00 1.0000e+00
  1000101  2    1    2    0    0 +7.1472674061e+01 -1.5261555336e+01 -4.2470913680e+02 4.4874170003e+02 1.2509997706e+02 6.9021e+00 0.0000e+00
 -1000101  2    1    2    0    0 -7.1472674061e+01 +1.5261555336e+01 -8.0187481196e+02 8.1485856903e+02 1.2510002096e+02 3.3366e+01 0.0000e+00
       11  1    3    3    0    0 -5.3971892755e-02 -3.3893047049e-03 -2.5660016621e-01 2.6223721897e-01 5.1100000000e-04 0.0000e+00 1.0000e+00
      255  1    3    3    0    0 +7.1526645953e+01 -1.5258166031e+01 -4.2445253663e+02 4.4847946281e+02 1.2500000000e+02 0.0000e+00 0.0000e+00
      -11  1    4    4    0    0 +5.2316496476e-02 -8.6359284136e-03 -4.8308181233e-01 4.8598342933e-01 5.1100000000e-04 0.0000e+00 -1.0000e+00
      255  1    4    4    0    0 -7.1524990557e+01 +1.5270191264e+01 -8.0139173015e+02 8.1437258560e+02 1.2500000000e+02 0.0000e+00 0.0000e+00
<mgrwt>
<rscale>  0 0.30360741E+03</rscale>
<asrwt>0</asrwt>
<pdfrwt beam="1">  1        2 0.19155257E+00 0.30360741E+03</pdfrwt>
<pdfrwt beam="2">  1       -2 0.28474102E-02 0.30360741E+03</pdfrwt>
<totfact> 0.86399448E+03</totfact>
</mgrwt>
</event>
<event>
 8      1 +1.6198320e-01 3.58610300e+02 7.81860800e-03 1.05913500e-01
        2 -1    0    0  501    0 +0.0000000000e+00 +0.0000000000e+00 +8.0429119345e+02 8.0429119346e+02 2.5500000000e-03 0.0000e+00 1.0000e+00
       -2 -1    0    0    0  501 -0.0000000000e+00 -0.0000000000e+00 -3.9973511303e+01 3.9973511384e+01 2.5500000000e-03 0.0000e+00 -1.0000e+00
  1000101  2    1    2    0    0 -7.1274748937e+01 +4.7172993921e+01 +1.5640725564e+02 2.1775814631e+02 1.2509995795e+02 1.0365e+02 0.0000e+00
 -1000101  2    1    2    0    0 +7.1274748937e+01 -4.7172993921e+01 +6.0791042651e+02 6.2650655853e+02 1.2509996013e+02 3.7867e+01 0.0000e+00
       11  1    3    3    0    0 -1.0387534193e-01 +1.0957213903e-01 +2.6818235374e-01 3.0776318216e-01 5.1100000000e-04 0.0000e+00 1.0000e+00
      255  1    3    3    0    0 -7.1170873595e+01 +4.7063421782e+01 +1.5613907329e+02 2.1745038313e+02 1.2500000000e+02 0.0000e+00 0.0000e+00
      -11  1    4    4    0    0 +8.8275482332e-02 -8.6671396170e-02 +2.4779556778e-01 2.7696100128e-01 5.1100000000e-04 0.0000e+00 -1.0000e+00
      255  1    4    4    0    0 +7.1186473454e+01 -4.7086322525e+01 +6.0766263094e+02 6.2622959752e+02 1.2500000000e+02 0.0000e+00 0.0000e+00
<mgrwt>
<rscale>  0 0.35861034E+03</rscale>
<asrwt>0</asrwt>
<pdfrwt beam="1">  1        2 0.12373710E+00 0.35861034E+03</pdfrwt>
<pdfrwt beam="2">  1       -2 0.61497712E-02 0.35861034E+03</pdfrwt>
<totfact> 0.50423292E+03</totfact>
</mgrwt>
</event>
<event>
 8      1 +1.6198320e-01 6.28092600e+02 7.81860800e-03 9.84877800e-02
       -2 -1    0    0    0  501 -0.0000000000e+00 +0.0000000000e+00 +5.7207492056e+01 5.7207492113e+01 2.5500000000e-03 0.0000e+00 -1.0000e+00
        2 -1    0    0  501    0 +0.0000000000e+00 -0.0000000000e+00 -1.7239887579e+03 1.7239887579e+03 2.5500000000e-03 0.0000e+00 1.0000e+00
  1000101  2    1    2    0    0 -2.6346804927e+02 -1.1644484244e+02 -8.3260738363e+02 8.8986525344e+02 1.2510115781e+02 3.8931e+01 0.0000e+00
 -1000101  2    1    2    0    0 +2.6346804927e+02 +1.1644484244e+02 -8.3417388222e+02 8.9133099659e+02 1.2510022131e+02 8.4074e+01 0.0000e+00
       11  1    3    3    0    0 -2.9784135735e-01 -1.5460873062e-01 -1.1767227103e+00 1.2236379905e+00 5.1100000000e-04 0.0000e+00 1.0000e+00
      255  1    3    3    0    0 -2.6317020791e+02 -1.1629023371e+02 -8.3143066092e+02 8.8864161545e+02 1.2500000000e+02 0.0000e+00 0.0000e+00
      -11  1    4    4    0    0 +2.1022633737e-01 -1.4285025951e-02 -5.9055253259e-01 6.2701812555e-01 5.1100000000e-04 0.0000e+00 -1.0000e+00
      255  1    4    4    0    0 +2.6325782293e+02 +1.1645912747e+02 -8.3358332969e+02 8.9070397846e+02 1.2500000000e+02 0.0000e+00 0.0000e+00
<mgrwt>
<rscale>  0 0.62809258E+03</rscale>
<asrwt>0</asrwt>
<pdfrwt beam="1">  1        2 0.26522900E+00 0.62809258E+03</pdfrwt>
<pdfrwt beam="2">  1       -2 0.88011539E-02 0.62809258E+03</pdfrwt>
<totfact> 0.82177445E+02</totfact>
</mgrwt>
</event>
<event>
 8      1 +1.6198320e-01 3.03910300e+02 7.81860800e-03 1.08330200e-01
       -2 -1    0    0    0  501 -0.0000000000e+00 +0.0000000000e+00 +3.7252060581e+01 3.7252060668e+01 2.5500000000e-03 0.0000e+00 -1.0000e+00
        2 -1    0    0  501    0 +0.0000000000e+00 -0.0000000000e+00 -6.1984121384e+02 6.1984121385e+02 2.5500000000e-03 0.0000e+00 1.0000e+00
  1000101  2    1    2    0    0 +2.5436003994e+01 +4.1325051375e+01 -1.3710649909e+02 1.9184112912e+02 1.2510026602e+02 2.7314e+02 0.0000e+00
 -1000101  2    1    2    0    0 -2.5436003994e+01 -4.1325051375e+01 -4.4548265417e+02 4.6525214540e+02 1.2510001382e+02 5.3926e+02 0.0000e+00
       11  1    3    3    0    0 +6.5784976910e-02 -1.9694114401e-02 -2.0565229040e-01 2.1681477578e-01 5.1100000000e-04 0.0000e+00 1.0000e+00
      255  1    3    3    0    0 +2.5370219017e+01 +4.1344745489e+01 -1.3690084680e+02 1.9162431434e+02 1.2500000000e+02 0.0000e+00 0.0000e+00
      -11  1    4    4    0    0 -6.8200597778e-03 +6.7417500504e-02 -1.4399968593e-01 1.5914711200e-01 5.1100000000e-04 0.0000e+00 -1.0000e+00
      255  1    4    4    0    0 -2.5429183934e+01 -4.1392468875e+01 -4.4533865449e+02 4.6509299829e+02 1.2500000000e+02 0.0000e+00 0.0000e+00
<mgrwt>
<rscale>  0 0.30391027E+03</rscale>
<asrwt>0</asrwt>
<pdfrwt beam="1">  1        2 0.95360180E-01 0.30391027E+03</pdfrwt>
<pdfrwt beam="2">  1       -2 0.57310867E-02 0.30391027E+03</pdfrwt>
<totfact> 0.77118299E+03</totfact>
</mgrwt>
</event>
<event>
 8      1 +1.6198320e-01 2.75504000e+02 7.81860800e-03 1.09817000e-01
       -1 -1    0    0    0  501 -0.0000000000e+00 +0.0000000000e+00 +2.6497134981e+01 2.6497135461e+01 5.0400000000e-03 0.0000e+00 -1.0000e+00
        1 -1    0    0  501    0 +0.0000000000e+00 -0.0000000000e+00 -7.1613828572e+02 7.1613828574e+02 5.0400000000e-03 0.0000e+00 1.0000e+00
  1000101  2    1    2    0    0 +5.7027812777e+01 -6.9813341265e+00 -3.5820999547e+02 3.8375172567e+02 1.2510026236e+02 4.8289e+02 0.0000e+00
 -1000101  2    1    2    0    0 -5.7027812777e+01 +6.9813341265e+00 -3.3143115527e+02 3.5888369553e+02 1.2509990319e+02 5.0730e+01 0.0000e+00
       11  1    3    3    0    0 +2.7268071063e-02 +3.6492057586e-02 -5.1135342326e-01 5.1337881002e-01 5.1100000000e-04 0.0000e+00 1.0000e+00
      255  1    3    3    0    0 +5.7000544706e+01 -7.0178261841e+00 -3.5769864205e+02 3.8323834686e+02 1.2500000000e+02 0.0000e+00 0.0000e+00
      -11  1    4    4    0    0 -4.7513805600e-02 -4.0116640834e-02 -2.9510821672e-02 6.8833540599e-02 5.1100000000e-04 0.0000e+00 -1.0000e+00
      255  1    4    4    0    0 -5.6980298972e+01 +7.0214507673e+00 -3.3140164445e+02 3.5881486199e+02 1.2500000000e+02 0.0000e+00 0.0000e+00
<mgrwt>
<rscale>  0 0.27550400E+03</rscale>
<asrwt>0</asrwt>
<pdfrwt beam="1">  1        1 0.11017511E+00 0.27550400E+03</pdfrwt>
<pdfrwt beam="2">  1       -1 0.40764829E-02 0.27550400E+03</pdfrwt>
<totfact> 0.64994227E+03</totfact>
</mgrwt>
</event>
<event>
 8      1 +1.6198320e-01 2.65530600e+02 7.81860800e-03 1.10386500e-01
       -1 -1    0    0    0  501 -0.0000000000e+00 +0.0000000000e+00 +1.2009485462e+01 1.2009486519e+01 5.0400000000e-03 0.0000e+00 -1.0000e+00
        1 -1    0    0  501    0 +0.0000000000e+00 -0.0000000000e+00 -1.4677255105e+03 1.4677255105e+03 5.0400000000e-03 0.0000e+00 1.0000e+00
  1000101  2    1    2    0    0 -3.6376342030e+01 -1.2040525437e+01 -8.5351260006e+02 8.6348247620e+02 1.2510002288e+02 8.8682e+00 0.0000e+00
 -1000101  2    1    2    0    0 +3.6376342030e+01 +1.2040525437e+01 -6.0220342497e+02 6.1625252082e+02 1.2509992751e+02 1.0752e+02 0.0000e+00
       11  1    3    3    0    0 -5.4661452540e-02 -7.0934208290e-02 -2.6512669074e-01 2.7984274077e-01 5.1100000000e-04 0.0000e+00 1.0000e+00
      255  1    3    3    0    0 -3.6321680578e+01 -1.1969591229e+01 -8.5324747337e+02 8.6320263346e+02 1.2500000000e+02 0.0000e+00 0.0000e+00
      -11  1    4    4    0    0 +6.8466578395e-03 +7.2646941495e-02 -1.2945485496e-01 1.4860442600e-01 5.1100000000e-04 0.0000e+00 -1.0000e+00
      255  1    4    4    0    0 +3.6369495372e+01 +1.1967878496e+01 -6.0207397011e+02 6.1610391640e+02 1.2500000000e+02 0.0000e+00 0.0000e+00
<mgrwt>
<rscale>  0 0.26553063E+03</rscale>
<asrwt>0</asrwt>
<pdfrwt beam="1">  1        1 0.22580378E+00 0.26553063E+03</pdfrwt>
<pdfrwt beam="2">  1       -1 0.18476144E-02 0.26553063E+03</pdfrwt>
<totfact> 0.57862774E+03</totfact>
</mgrwt>
</event>
<event>
 8      1 +1.6198320e-01 4.94867000e+02 7.81860800e-03 1.01512700e-01
        2 -1    0    0  501    0 +0.0000000000e+00 +0.0000000000e+00 +3.7308700639e+03 3.7308700639e+03 2.5500000000e-03 0.0000e+00 1.0000e+00
       -2 -1    0    0    0  501 -0.0000000000e+00 -0.0000000000e+00 -1.6409936308e+01 1.6409936506e+01 2.5500000000e-03 0.0000e+00 -1.0000e+00
  1000101  2    1    2    0    0 -1.1033957795e+02 +1.5810322038e+02 +2.5513196629e+03 2.5616505523e+03 1.2510027689e+02 2.6048e+00 0.0000e+00
 -1000101  2    1    2    0    0 +1.1033957795e+02 -1.5810322038e+02 +1.1631404648e+03 1.1856294481e+03 1.2509994704e+02 1.9856e+01 0.0000e+00
       11  1    3    3    0    0 -1.0795461694e-01 +2.7345433756e-01 +3.0762038161e+00 3.0902203245e+00 5.1100000000e-04 0.0000e+00 1.0000e+00
      255  1    3    3    0    0 -1.1023162333e+02 +1.5782976605e+02 +2.5482434591e+03 2.5585603320e+03 1.2500000000e+02 0.0000e+00 0.0000e+00
      -11  1    4    4    0    0 +2.3144399398e-02 -1.7222011659e-01 +6.1946313660e-01 6.4337412950e-01 5.1100000000e-04 0.0000e+00 -1.0000e+00
      255  1    4    4    0    0 +1.1031643355e+02 -1.5793100027e+02 +1.1625210016e+03 1.1849860740e+03 1.2500000000e+02 0.0000e+00 0.0000e+00
<mgrwt>
<rscale>  0 0.49486701E+03</rscale>
<asrwt>0</asrwt>
<pdfrwt beam="1">  1        2 0.57397981E+00 0.49486701E+03</pdfrwt>
<pdfrwt beam="2">  1       -2 0.25246065E-02 0.49486701E+03</pdfrwt>
<totfact> 0.36751912E+02</totfact>
</mgrwt>
</event>
<event>
 8      1 +1.6198320e-01 6.58949300e+02 7.81860800e-03 9.79013000e-02
       -2 -1    0    0    0  501 -0.0000000000e+00 +0.0000000000e+00 +6.3707462883e+01 6.3707462934e+01 2.5500000000e-03 0.0000e+00 -1.0000e+00
        2 -1    0    0  501    0 +0.0000000000e+00 -0.0000000000e+00 -1.7039378651e+03 1.7039378651e+03 2.5500000000e-03 0.0000e+00 1.0000e+00
  1000101  2    1    2    0    0 +5.8796332678e+01 +7.1926951525e+00 -1.8069372934e+01 1.3958967826e+02 1.2510008969e+02 1.6177e+02 0.0000e+00
 -1000101  2    1    2    0    0 -5.8796332678e+01 -7.1926951525e+00 -1.6221610293e+03 1.6280556498e+03 1.2510016077e+02 3.3231e+01 0.0000e+00
       11  1    3    3    0    0 +1.3604382401e-01 -5.0381460476e-02 -3.1430146210e-02 1.4843964708e-01 5.1100000000e-04 0.0000e+00 1.0000e+00
      255  1    3    3    0    0 +5.8660288854e+01 +7.2430766130e+00 -1.8037942787e+01 1.3944123862e+02 1.2500000000e+02 0.0000e+00 0.0000e+00
      -11  1    4    4    0    0 -5.3006824379e-03 -9.7219936885e-02 -1.2535003195e+00 1.2572760737e+00 5.1100000000e-04 0.0000e+00 -1.0000e+00
      255  1    4    4    0    0 -5.8791031996e+01 -7.0954752156e+00 -1.6209075290e+03 1.6267983737e+03 1.2500000000e+02 0.0000e+00 0.0000e+00
<mgrwt>
<rscale>  0 0.65894934E+03</rscale>
<asrwt>0</asrwt>
<pdfrwt beam="1">  1        2 0.26214425E+00 0.65894934E+03</pdfrwt>
<pdfrwt beam="2">  1       -2 0.98011494E-02 0.65894934E+03</pdfrwt>
<totfact> 0.70701621E+02</totfact>
</mgrwt>
</event>
<event>
 8      1 +1.6198320e-01 4.14520800e+02 7.81860800e-03 1.03886400e-01
       -2 -1    0    0    0  501 -0.0000000000e+00 +0.0000000000e+00 +1.4644890231e+01 1.4644890453e+01 2.5500000000e-03 0.0000e+00 -1.0000e+00
        2 -1    0    0  501    0 +0.0000000000e+00 -0.0000000000e+00 -2.9332329312e+03 2.9332329312e+03 2.5500000000e-03 0.0000e+00 1.0000e+00
  1000101  2    1    2    0    0 +2.5949196661e+01 -1.6221276125e+02 -1.5866037198e+03 1.5999836929e+03 1.2510041327e+02 2.0434e+02 0.0000e+00
 -1000101  2    1    2    0    0 -2.5949196661e+01 +1.6221276125e+02 -1.3319843213e+03 1.3478941288e+03 1.2509999822e+02 1.3264e+02 0.0000e+00
       11  1    3    3    0    0 +1.1222852182e-01 -2.1617094285e-01 -2.0655923844e+00 2.0799031894e+00 5.1100000000e-04 0.0000e+00 1.0000e+00
      255  1    3    3    0    0 +2.5836968140e+01 -1.6199659031e+02 -1.5845381274e+03 1.5979037897e+03 1.2500000000e+02 0.0000e+00 0.0000e+00
      -11  1    4    4    0    0 +2.7124211055e-02 +1.9657766605e-01 -8.8571188275e-01 9.0766970974e-01 5.1100000000e-04 0.0000e+00 -1.0000e+00
      255  1    4    4    0    0 -2.5976320872e+01 +1.6201618359e+02 -1.3310986094e+03 1.3469864590e+03 1.2500000000e+02 0.0000e+00 0.0000e+00
<mgrwt>
<rscale>  0 0.41452081E+03</rscale>
<asrwt>0</asrwt>
<pdfrwt beam="1">  1        2 0.45126614E+00 0.41452081E+03</pdfrwt>
<pdfrwt beam="2">  1       -2 0.22530624E-02 0.41452081E+03</pdfrwt>
<totfact> 0.14522650E+03</totfact>
</mgrwt>
</event>
<event>
 8      1 +1.6198320e-01 2.60607300e+02 7.81860800e-03 1.10677900e-01
       -2 -1    0    0    0  501 -0.0000000000e+00 +0.0000000000e+00 +5.3830533691e+01 5.3830533751e+01 2.5500000000e-03 0.0000e+00 -1.0000e+00
        2 -1    0    0  501    0 +0.0000000000e+00 -0.0000000000e+00 -3.1541645756e+02 3.1541645757e+02 2.5500000000e-03 0.0000e+00 1.0000e+00
  1000101  2    1    2    0    0 +3.1349616107e+01 -1.7716684067e+01 -1.3884479274e+02 1.9032775199e+02 1.2510034925e+02 5.5708e+01 0.0000e+00
 -1000101  2    1    2    0    0 -3.1349616107e+01 +1.7716684067e+01 -1.2274113113e+02 1.7891923933e+02 1.2510007837e+02 4.9751e+00 0.0000e+00
       11  1    3    3    0    0 -7.2325511584e-03 -3.9655309585e-02 -2.4058742419e-01 2.4394143391e-01 5.1100000000e-04 0.0000e+00 1.0000e+00
      255  1    3    3    0    0 +3.1356848658e+01 -1.7677028757e+01 -1.3860420532e+02 1.9008381056e+02 1.2500000000e+02 0.0000e+00 0.0000e+00
      -11  1    4    4    0    0 +6.1949813969e-02 -4.1826118453e-02 -8.6037745239e-02 1.1397349851e-01 5.1100000000e-04 0.0000e+00 -1.0000e+00
      255  1    4    4    0    0 -3.1411565921e+01 +1.7758510185e+01 -1.2265509338e+02 1.7880526584e+02 1.2500000000e+02 0.0000e+00 0.0000e+00
<mgrwt>
<rscale>  0 0.26060726E+03</rscale>
<asrwt>0</asrwt>
<pdfrwt beam="1">  1        2 0.48525608E-01 0.26060726E+03</pdfrwt>
<pdfrwt beam="2">  1       -2 0.82816207E-02 0.26060726E+03</pdfrwt>
<totfact> 0.91693985E+03</totfact>
</mgrwt>
</event>
<event>
 8      1 +1.6198320e-01 3.46843700e+02 7.81860800e-03 1.06391800e-01
        2 -1    0    0  501    0 +0.0000000000e+00 +0.0000000000e+00 +2.2412258897e+02 2.2412258898e+02 2.5500000000e-03 0.0000e+00 1.0000e+00
       -2 -1    0    0    0  501 -0.0000000000e+00 -0.0000000000e+00 -1.3419057115e+02 1.3419057117e+02 2.5500000000e-03 0.0000e+00 -1.0000e+00
  1000101  2    1    2    0    0 +3.8534425662e+01 -2.9093546885e+01 +1.5857447453e+02 2.0767090822e+02 1.2509998288e+02 2.6325e+01 0.0000e+00
 -1000101  2    1    2    0    0 -3.8534425662e+01 +2.9093546885e+01 -6.8642456709e+01 1.5064225193e+02 1.2509981924e+02 1.2210e+02 0.0000e+00
       11  1    3    3    0    0 -6.9951464184e-02 +1.0778597443e-02 +8.1121357226e-02 1.0765835418e-01 5.1100000000e-04 0.0000e+00 1.0000e+00
      255  1    3    3    0    0 +3.8604377126e+01 -2.9104325482e+01 +1.5849335317e+02 2.0756324987e+02 1.2500000000e+02 0.0000e+00 0.0000e+00
      -11  1    4    4    0    0 -1.3385009419e-01 +4.5150564449e-02 -7.7886042819e-02 1.6131000580e-01 5.1100000000e-04 0.0000e+00 -1.0000e+00
      255  1    4    4    0    0 -3.8400575568e+01 +2.9048396320e+01 -6.8564570666e+01 1.5048094193e+02 1.2500000000e+02 0.0000e+00 0.0000e+00
<mgrwt>
<rscale>  0 0.34684370E+03</rscale>
<asrwt>0</asrwt>
<pdfrwt beam="1">  1        2 0.34480398E-01 0.34684370E+03</pdfrwt>
<pdfrwt beam="2">  1       -2 0.20644704E-01 0.34684370E+03</pdfrwt>
<totfact> 0.30024290E+03</totfact>
</mgrwt>
</event>
<event>
 8      1 +1.6198320e-01 6.83195200e+02 7.81860800e-03 9.74641000e-02
       -2 -1    0    0    0  501 -0.0000000000e+00 +0.0000000000e+00 +7.5327674103e+01 7.5327674146e+01 2.5500000000e-03 0.0000e+00 1.0000e+00
        2 -1    0    0  501    0 +0.0000000000e+00 -0.0000000000e+00 -1.5490842592e+03 1.5490842592e+03 2.5500000000e-03 0.0000e+00 -1.0000e+00
  1000101  2    1    2    0    0 +1.4094988582e+02 -4.8766027221e+01 -1.4042958663e+03 1.4177241946e+03 1.2510002368e+02 1.3367e+02 0.0000e+00
 -1000101  2    1    2    0    0 -1.4094988582e+02 +4.8766027221e+01 -6.9460718746e+01 2.0668773877e+02 1.2510009667e+02 2.7530e+01 0.0000e+00
       11  1    3    3    0    0 -1.7995298464e-02 -5.7412509767e-02 -2.8281973033e-01 2.8914924871e-01 5.1100000000e-04 0.0000e+00 1.0000e+00
      255  1    3    3    0    0 +1.4096788111e+02 -4.8708614712e+01 -1.4040130466e+03 1.4174350453e+03 1.2500000000e+02 0.0000e+00 0.0000e+00
      -11  1    4    4    0    0 -7.6190860430e-02 -2.7207026176e-02 +4.3033158776e-02 9.1637237854e-02 5.1100000000e-04 0.0000e+00 -1.0000e+00
      255  1    4    4    0    0 -1.4087369496e+02 +4.8793234248e+01 -6.9503751905e+01 2.0659610153e+02 1.2500000000e+02 0.0000e+00 0.0000e+00
<mgrwt>
<rscale>  0 0.68319518E+03</rscale>
<asrwt>0</asrwt>
<pdfrwt beam="1">  1        2 0.23832063E+00 0.68319518E+03</pdfrwt>
<pdfrwt beam="2">  1       -2 0.11588874E-01 0.68319518E+03</pdfrwt>
<totfact> 0.65285030E+02</totfact>
</mgrwt>
</event>
<event>
 8      1 +1.6198320e-01 2.64812200e+02 7.81860800e-03 1.10428600e-01
        2 -1    0    0  501    0 +0.0000000000e+00 +0.0000000000e+00 +2.9390075200e+02 2.9390075202e+02 2.5500000000e-03 0.0000e+00 1.0000e+00
       -2 -1    0    0    0  501 -0.0000000000e+00 -0.0000000000e+00 -5.9650651661e+01 5.9650651716e+01 2.5500000000e-03 0.0000e+00 -1.0000e+00
  1000101  2    1    2    0    0 +3.3371493387e+01 +2.4598934600e+01 +1.3415069600e+02 1.8805633120e+02 1.2510000125e+02 4.6191e+01 0.0000e+00
 -1000101  2    1    2    0    0 -3.3371493387e+01 -2.4598934600e+01 +1.0009940434e+02 1.6549507253e+02 1.2509981666e+02 1.4436e+02 0.0000e+00
       11  1    3    3    0    0 +2.4987423432e-02 -6.6331767643e-02 +1.6682422826e-01 1.8125909353e-01 5.1100000000e-04 0.0000e+00 1.0000e+00
      255  1    3    3    0    0 +3.3346505963e+01 +2.4665266368e+01 +1.3398387177e+02 1.8787507211e+02 1.2500000000e+02 0.0000e+00 0.0000e+00
      -11  1    4    4    0    0 -2.2367799481e-02 -6.0230078548e-02 -2.9834384190e-02 7.0840189277e-02 5.1100000000e-04 0.0000e+00 -1.0000e+00
      255  1    4    4    0    0 -3.3349125587e+01 -2.4538704522e+01 +1.0012923873e+02 1.6542423234e+02 1.2500000000e+02 0.0000e+00 0.0000e+00
<mgrwt>
<rscale>  0 0.26481217E+03</rscale>
<asrwt>0</asrwt>
<pdfrwt beam="1">  1        2 0.45215499E-01 0.26481217E+03</pdfrwt>
<pdfrwt beam="2">  1       -2 0.91770235E-02 0.26481217E+03</pdfrwt>
<totfact> 0.84248049E+03</totfact>
</mgrwt>
</event>
<event>
 8      1 +1.6198320e-01 3.15704200e+02 7.81860800e-03 1.07764400e-01
       -2 -1    0    0    0  501 -0.0000000000e+00 +0.0000000000e+00 +1.6455504241e+01 1.6455504439e+01 2.5500000000e-03 0.0000e+00 -1.0000e+00
        2 -1    0    0  501    0 +0.0000000000e+00 -0.0000000000e+00 -1.5142215103e+03 1.5142215103e+03 2.5500000000e-03 0.0000e+00 1.0000e+00
  1000101  2    1    2    0    0 -1.0224160231e+01 -1.4069156264e+01 -1.2079446485e+03 1.2145298857e+03 1.2510033935e+02 4.4116e+02 0.0000e+00
 -1000101  2    1    2    0    0 +1.0224160231e+01 +1.4069156264e+01 -2.8982135764e+02 3.1614712908e+02 1.2510041276e+02 9.8946e+01 0.0000e+00
       11  1    3    3    0    0 +1.0950112949e-02 +3.7108377859e-02 -1.7292792404e+00 1.7297120827e+00 5.1100000000e-04 0.0000e+00 1.0000e+00
      255  1    3    3    0    0 -1.0235110344e+01 -1.4106264642e+01 -1.2062153692e+03 1.2128001736e+03 1.2500000000e+02 0.0000e+00 0.0000e+00
      -11  1    4    4    0    0 +7.8318743840e-02 +1.0717068885e-02 -6.5097486563e-02 1.0240422394e-01 5.1100000000e-04 0.0000e+00 -1.0000e+00
      255  1    4    4    0    0 +1.0145841487e+01 +1.4058439195e+01 -2.8975626015e+02 3.1604472485e+02 1.2500000000e+02 0.0000e+00 0.0000e+00
<mgrwt>
<rscale>  0 0.31570416E+03</rscale>
<asrwt>0</asrwt>
<pdfrwt beam="1">  1        2 0.23295705E+00 0.31570416E+03</pdfrwt>
<pdfrwt beam="2">  1       -2 0.25316172E-02 0.31570416E+03</pdfrwt>
<totfact> 0.73294320E+03</totfact>
</mgrwt>
</event>
<event>
 8      1 +1.6198320e-01 2.71306100e+02 7.81860800e-03 1.10053400e-01
       -2 -1    0    0    0  501 -0.0000000000e+00 +0.0000000000e+00 +1.1892158441e+01 1.1892158714e+01 2.5500000000e-03 0.0000e+00 -1.0000e+00
        2 -1    0    0  501    0 +0.0000000000e+00 -0.0000000000e+00 -1.5473857312e+03 1.5473857312e+03 2.5500000000e-03 0.0000e+00 1.0000e+00
  1000101  2    1    2    0    0 -1.4532635454e+01 +5.0036055030e+01 -8.0268102445e+02 8.1404031539e+02 1.2509997511e+02 2.0173e+02 0.0000e+00
 -1000101  2    1    2    0    0 +1.4532635454e+01 -5.0036055030e+01 -7.3281254828e+02 7.4523757450e+02 1.2509998892e+02 2.5962e+01 0.0000e+00
       11  1    3    3    0    0 -2.5642169103e-02 +1.1035341966e-02 -1.1578810147e+00 1.1582175983e+00 5.1100000000e-04 0.0000e+00 1.0000e+00
      255  1    3    3    0    0 -1.4506993284e+01 +5.0025019688e+01 -8.0152314343e+02 8.1288209779e+02 1.2500000000e+02 0.0000e+00 0.0000e+00
      -11  1    4    4    0    0 -2.5661144906e-02 -1.2320640423e-01 -4.6132562653e-01 4.7818396796e-01 5.1100000000e-04 0.0000e+00 -1.0000e+00
      255  1    4    4    0    0 +1.4558296598e+01 -4.9912848625e+01 -7.3235122265e+02 7.4475939053e+02 1.2500000000e+02 0.0000e+00 0.0000e+00
<mgrwt>
<rscale>  0 0.27130615E+03</rscale>
<asrwt>0</asrwt>
<pdfrwt beam="1">  1        2 0.23805918E+00 0.27130615E+03</pdfrwt>
<pdfrwt beam="2">  1       -2 0.18295641E-02 0.27130615E+03</pdfrwt>
<totfact> 0.11340145E+04</totfact>
</mgrwt>
</event>
<event>
 8      1 +1.6198320e-01 2.63201100e+02 7.81860800e-03 1.10523500e-01
       -2 -1    0    0    0  501 -0.0000000000e+00 +0.0000000000e+00 +2.5044295360e+01 2.5044295490e+01 2.5500000000e-03 0.0000e+00 -1.0000e+00
        2 -1    0    0  501    0 +0.0000000000e+00 -0.0000000000e+00 -6.9152279890e+02 6.9152279890e+02 2.5500000000e-03 0.0000e+00 1.0000e+00
  1000101  2    1    2    0    0 +1.0234796899e+01 -9.0600721360e-01 -2.2560113005e+02 2.5816941377e+02 1.2509997767e+02 5.3481e+01 0.0000e+00
 -1000101  2    1    2    0    0 -1.0234796899e+01 +9.0600721360e-01 -4.4087737349e+02 4.5839768062e+02 1.2509997291e+02 1.5802e+02 0.0000e+00
       11  1    3    3    0    0 +5.3798412427e-02 +8.5979905392e-02 -1.4475565918e-01 1.7675201639e-01 5.1100000000e-04 0.0000e+00 1.0000e+00
      255  1    3    3    0    0 +1.0180998487e+01 -9.9198711899e-01 -2.2545637439e+02 2.5799266176e+02 1.2500000000e+02 0.0000e+00 0.0000e+00
      -11  1    4    4    0    0 +8.4674677936e-02 -3.7045293115e-02 -3.2324654485e-01 3.3620045316e-01 5.1100000000e-04 0.0000e+00 -1.0000e+00
      255  1    4    4    0    0 -1.0319471577e+01 +9.4305250671e-01 -4.4055412695e+02 4.5806148017e+02 1.2500000000e+02 0.0000e+00 0.0000e+00
<mgrwt>
<rscale>  0 0.26320107E+03</rscale>
<asrwt>0</asrwt>
<pdfrwt beam="1">  1        2 0.10638811E+00 0.26320107E+03</pdfrwt>
<pdfrwt beam="2">  1       -2 0.38529690E-02 0.26320107E+03</pdfrwt>
<totfact> 0.12301362E+04</totfact>
</mgrwt>
</event>
<event>
 8      1 +1.6198320e-01 3.06570100e+02 7.81860800e-03 1.08200200e-01
       -2 -1    0    0    0  501 -0.0000000000e+00 +0.0000000000e+00 +2.3677404422e+01 2.3677404559e+01 2.5500000000e-03 0.0000e+00 -1.0000e+00
        2 -1    0    0  501    0 +0.0000000000e+00 -0.0000000000e+00 -9.9235150817e+02 9.9235150817e+02 2.5500000000e-03 0.0000e+00 1.0000e+00
  1000101  2    1    2    0    0 -8.7070748512e+01 -1.0974470961e+01 -4.4446795912e+02 4.7000375104e+02 1.2509998023e+02 1.9920e+00 0.0000e+00
 -1000101  2    1    2    0    0 +8.7070748512e+01 +1.0974470961e+01 -5.2420614463e+02 5.4602516168e+02 1.2509852465e+02 1.2709e+01 0.0000e+00
       11  1    3    3    0    0 -1.1223181523e-01 +6.9390054104e-03 -7.0537564786e-01 7.1428229424e-01 5.1100000000e-04 0.0000e+00 1.0000e+00
      255  1    3    3    0    0 -8.6958516697e+01 -1.0981409966e+01 -4.4376258347e+02 4.6928946875e+02 1.2500000000e+02 0.0000e+00 0.0000e+00
      -11  1    4    4    0    0 +6.6014236403e-02 +1.0201105198e-01 -3.1761731240e-01 3.4006639410e-01 5.1100000000e-04 0.0000e+00 -1.0000e+00
      255  1    4    4    0    0 +8.7004734276e+01 +1.0872459909e+01 -5.2388852731e+02 5.4568509529e+02 1.2500000000e+02 0.0000e+00 0.0000e+00
<mgrwt>
<rscale>  0 0.30657011E+03</rscale>
<asrwt>0</asrwt>
<pdfrwt beam="1">  1        2 0.15266943E+00 0.30657011E+03</pdfrwt>
<pdfrwt beam="2">  1       -2 0.36426784E-02 0.30657011E+03</pdfrwt>
<totfact> 0.84142028E+03</totfact>
</mgrwt>
</event>
<event>
 8      1 +1.6198320e-01 3.42063700e+02 7.81860800e-03 1.06592000e-01
        1 -1    0    0  501    0 +0.0000000000e+00 +0.0000000000e+00 +7.3902800114e+02 7.3902800116e+02 5.0400000000e-03 0.0000e+00 1.0000e+00
       -1 -1    0    0    0  501 -0.0000000000e+00 -0.0000000000e+00 -3.9581577366e+01 3.9581577687e+01 5.0400000000e-03 0.0000e+00 -1.0000e+00
  1000101  2    1    2    0    0 +9.4712021983e+01 -3.9305665894e+01 +4.7618560424e+02 5.0290959119e+02 1.2510005893e+02 1.3100e+01 0.0000e+00
 -1000101  2    1    2    0    0 -9.4712021983e+01 +3.9305665894e+01 +2.2326081953e+02 2.7569998765e+02 1.2509910941e+02 1.4530e+02 0.0000e+00
       11  1    3    3    0    0 +1.6686949914e-01 -6.6861955252e-02 +3.5973603342e-01 4.0215199323e-01 5.1100000000e-04 0.0000e+00 1.0000e+00
      255  1    3    3    0    0 +9.4545152484e+01 -3.9238803939e+01 +4.7582586821e+02 5.0250743920e+02 1.2500000000e+02 0.0000e+00 0.0000e+00
      -11  1    4    4    0    0 -1.0283763902e-01 +4.4266611961e-02 +3.9806357402e-02 1.1882727021e-01 5.1100000000e-04 0.0000e+00 -1.0000e+00
      255  1    4    4    0    0 -9.4609184344e+01 +3.9261399282e+01 +2.2322101317e+02 2.7558116038e+02 1.2500000000e+02 0.0000e+00 0.0000e+00
<mgrwt>
<rscale>  0 0.34206370E+03</rscale>
<asrwt>0</asrwt>
<pdfrwt beam="1">  1        1 0.11369662E+00 0.34206370E+03</pdfrwt>
<pdfrwt beam="2">  1       -1 0.60894732E-02 0.34206370E+03</pdfrwt>
<totfact> 0.34068353E+03</totfact>
</mgrwt>
</event>
<event>
 8      1 +1.6198320e-01 6.11306400e+02 7.81860800e-03 9.88222300e-02
       -2 -1    0    0    0  501 -0.0000000000e+00 +0.0000000000e+00 +9.1751484698e+01 9.1751484733e+01 2.5500000000e-03 0.0000e+00 -1.0000e+00
        2 -1    0    0  501    0 +0.0000000000e+00 -0.0000000000e+00 -1.0182273931e+03 1.0182273931e+03 2.5500000000e-03 0.0000e+00 1.0000e+00
  1000101  2    1    2    0    0 -2.5758127456e+02 -1.0631734528e+02 -4.4315233407e+02 5.3822439314e+02 1.2510002107e+02 4.5858e+00 0.0000e+00
 -1000101  2    1    2    0    0 +2.5758127456e+02 +1.0631734528e+02 -4.8332357438e+02 5.7175448474e+02 1.2510004938e+02 3.1010e+01 0.0000e+00
       11  1    3    3    0    0 -4.3099128625e-01 -1.4101782184e-01 -6.5649237846e-01 7.9788596867e-01 5.1100000000e-04 0.0000e+00 1.0000e+00
      255  1    3    3    0    0 -2.5715028328e+02 -1.0617632745e+02 -4.4249584169e+02 5.3742650717e+02 1.2500000000e+02 0.0000e+00 0.0000e+00
      -11  1    4    4    0    0 +4.3212876502e-01 +1.4909039194e-01 -7.0301820413e-01 8.3856906155e-01 5.1100000000e-04 0.0000e+00 -1.0000e+00
      255  1    4    4    0    0 +2.5714914580e+02 +1.0616825488e+02 -4.8262055618e+02 5.7091591568e+02 1.2500000000e+02 0.0000e+00 0.0000e+00
<mgrwt>
<rscale>  0 0.61130639E+03</rscale>
<asrwt>0</asrwt>
<pdfrwt beam="1">  1        2 0.15665036E+00 0.61130639E+03</pdfrwt>
<pdfrwt beam="2">  1       -2 0.14115614E-01 0.61130639E+03</pdfrwt>
<totfact> 0.95971888E+02</totfact>
</mgrwt>
</event>
<event>
 8      1 +1.6198320e-01 2.79564000e+02 7.81860800e-03 1.09592700e-01
        2 -1    0    0  501    0 +0.0000000000e+00 +0.0000000000e+00 +2.2369498234e+03 2.2369498234e+03 2.5500000000e-03 0.0000e+00 1.0000e+00
       -2 -1    0    0    0  501 -0.0000000000e+00 -0.0000000000e+00 -8.7346668827e+00 8.7346672549e+00 2.5500000000e-03 0.0000e+00 -1.0000e+00
  1000101  2    1    2    0    0 -7.0757625100e-03 +2.0870080945e+01 +6.4204759111e+02 6.5445447645e+02 1.2509992873e+02 8.8875e+00 0.0000e+00
 -1000101  2    1    2    0    0 +7.0757625100e-03 -2.0870080945e+01 +1.5861675654e+03 1.5912300142e+03 1.2509936942e+02 1.0563e+02 0.0000e+00
       11  1    3    3    0    0 +9.7925673786e-02 +2.5591942417e-02 +4.2929969840e-01 4.4107015006e-01 5.1100000000e-04 0.0000e+00 1.0000e+00
      255  1    3    3    0    0 -1.0500143630e-01 +2.0844489003e+01 +6.4161829141e+02 6.5401340630e+02 1.2500000000e+02 0.0000e+00 0.0000e+00
      -11  1    4    4    0    0 +2.3144861439e-03 +6.7780176123e-02 +4.0574168697e-01 4.1137098438e-01 5.1100000000e-04 0.0000e+00 -1.0000e+00
      255  1    4    4    0    0 +4.7612763661e-03 -2.0937861121e+01 +1.5857618237e+03 1.5908186432e+03 1.2500000000e+02 0.0000e+00 0.0000e+00
<mgrwt>
<rscale>  0 0.27956403E+03</rscale>
<asrwt>0</asrwt>
<pdfrwt beam="1">  1        2 0.34414655E+00 0.27956403E+03</pdfrwt>
<pdfrwt beam="2">  1       -2 0.13437933E-02 0.27956403E+03</pdfrwt>
<totfact> 0.77119803E+03</totfact>
</mgrwt>
</event>
<event>
 8      1 +1.6198320e-01 1.01682300e+03 7.81860800e-03 9.29028400e-02
        2 -1    0    0  501    0 +0.0000000000e+00 +0.0000000000e+00 +2.4455966690e+03 2.4455966690e+03 2.5500000000e-03 0.0000e+00 1.0000e+00
       -2 -1    0    0    0  501 -0.0000000000e+00 -0.0000000000e+00 -1.0569282810e+02 1.0569282813e+02 2.5500000000e-03 0.0000e+00 -1.0000e+00
  1000101  2    1    2    0    0 +5.0605500513e+01 -3.9212499007e+01 -5.5993785857e+01 1.5127408759e+02 1.2509999505e+02 2.1250e+02 0.0000e+00
 -1000101  2    1    2    0    0 -5.0605500513e+01 +3.9212499007e+01 +2.3958976268e+03 2.4000154096e+03 1.2509992569e+02 8.6402e+01 0.0000e+00
       11  1    3    3    0    0 +8.2464584701e-02 +1.7744469270e-02 -1.2742038294e-01 1.5281194008e-01 5.1100000000e-04 0.0000e+00 1.0000e+00
      255  1    3    3    0    0 +5.0523035929e+01 -3.9230243476e+01 -5.5866365474e+01 1.5112127565e+02 1.2500000000e+02 0.0000e+00 0.0000e+00
      -11  1    4    4    0    0 +3.9901571941e-02 +8.9641642712e-02 +1.9856600717e+00 1.9880829814e+00 5.1100000000e-04 0.0000e+00 -1.0000e+00
      255  1    4    4    0    0 -5.0645402085e+01 +3.9122857364e+01 +2.3939119667e+03 2.3980273266e+03 1.2500000000e+02 0.0000e+00 0.0000e+00
<mgrwt>
<rscale>  0 0.10168226E+04</rscale>
<asrwt>0</asrwt>
<pdfrwt beam="1">  1        2 0.37624564E+00 0.10168226E+04</pdfrwt>
<pdfrwt beam="2">  1       -2 0.16260435E-01 0.10168226E+04</pdfrwt>
<totfact> 0.11548056E+02</totfact>
</mgrwt>
</event>
<event>
 8      1 +1.6198320e-01 6.16105500e+02 7.81860800e-03 9.87254400e-02
        2 -1    0    0  501    0 +0.0000000000e+00 +0.0000000000e+00 +3.0073364888e+03 3.0073364888e+03 2.5500000000e-03 0.0000e+00 1.0000e+00
       -2 -1    0    0    0  501 -0.0000000000e+00 -0.0000000000e+00 -3.1555002861e+01 3.1555002964e+01 2.5500000000e-03 0.0000e+00 -1.0000e+00
  1000101  2    1    2    0    0 +9.8865228349e+01 +8.7145523552e+01 +2.7148426694e+03 2.7209170176e+03 1.2510004727e+02 2.9993e+01 0.0000e+00
 -1000101  2    1    2    0    0 -9.8865228349e+01 -8.7145523552e+01 +2.6093881654e+02 3.1797447409e+02 1.2510005813e+02 4.3970e+02 0.0000e+00
       11  1    3    3    0    0 +1.1759166621e-01 +6.4524957595e-02 +3.8540206005e+00 3.8563540190e+00 5.1100000000e-04 0.0000e+00 1.0000e+00
      255  1    3    3    0    0 +9.8747636683e+01 +8.7080998594e+01 +2.7109886488e+03 2.7170606636e+03 1.2500000000e+02 0.0000e+00 0.0000e+00
      -11  1    4    4    0    0 -5.7351589502e-02 -6.1337815282e-02 +1.3473398575e-02 8.5048962324e-02 5.1100000000e-04 0.0000e+00 -1.0000e+00
      255  1    4    4    0    0 -9.8807876760e+01 -8.7084185736e+01 +2.6092534314e+02 3.1788942513e+02 1.2500000000e+02 0.0000e+00 0.0000e+00
<mgrwt>
<rscale>  0 0.61610555E+03</rscale>
<asrwt>0</asrwt>
<pdfrwt beam="1">  1        2 0.46266722E+00 0.61610555E+03</pdfrwt>
<pdfrwt beam="2">  1       -2 0.48546152E-02 0.61610555E+03</pdfrwt>
<totfact> 0.39889107E+02</totfact>
</mgrwt>
</event>
<event>
 8      1 +1.6198320e-01 3.62916100e+02 7.81860800e-03 1.05743500e-01
        2 -1    0    0  501    0 +0.0000000000e+00 +0.0000000000e+00 +1.2904558709e+02 1.2904558711e+02 2.5500000000e-03 0.0000e+00 1.0000e+00
       -2 -1    0    0    0  501 -0.0000000000e+00 -0.0000000000e+00 -2.5515811292e+02 2.5515811293e+02 2.5500000000e-03 0.0000e+00 -1.0000e+00
  1000101  2    1    2    0    0 -1.1519495390e+02 -5.8623077374e+01 -3.7771174840e+01 1.8380209601e+02 1.2509998499e+02 1.1173e+02 0.0000e+00
 -1000101  2    1    2    0    0 +1.1519495390e+02 +5.8623077374e+01 -8.8341350990e+01 2.0040160403e+02 1.2510022381e+02 3.8289e+01 0.0000e+00
       11  1    3    3    0    0 -2.0972391115e-01 -5.8850931307e-02 -9.5607089413e-02 2.3788343299e-01 5.1100000000e-04 0.0000e+00 1.0000e+00
      255  1    3    3    0    0 -1.1498522999e+02 -5.8564226443e+01 -3.7675567751e+01 1.8356421258e+02 1.2500000000e+02 0.0000e+00 0.0000e+00
      -11  1    4    4    0    0 +1.3893678267e-01 -3.1833626807e-02 -1.1832635085e-01 1.8525170931e-01 5.1100000000e-04 0.0000e+00 -1.0000e+00
      255  1    4    4    0    0 +1.1505601712e+02 +5.8654911001e+01 -8.8223024639e+01 2.0021635232e+02 1.2500000000e+02 0.0000e+00 0.0000e+00
<mgrwt>
<rscale>  0 0.36291613E+03</rscale>
<asrwt>0</asrwt>
<pdfrwt beam="1">  1        2 0.19853167E-01 0.36291613E+03</pdfrwt>
<pdfrwt beam="2">  1       -2 0.39255094E-01 0.36291613E+03</pdfrwt>
<totfact> 0.17398421E+03</totfact>
</mgrwt>
</event>
<event>
 8      1 +1.6198320e-01 2.73064500e+02 7.81860800e-03 1.09953800e-01
        2 -1    0    0  501    0 +0.0000000000e+00 +0.0000000000e+00 +6.8264243179e+02 6.8264243179e+02 2.5500000000e-03 0.0000e+00 1.0000e+00
       -2 -1    0    0    0  501 -0.0000000000e+00 -0.0000000000e+00 -2.7307203741e+01 2.7307203860e+01 2.5500000000e-03 0.0000e+00 -1.0000e+00
  1000101  2    1    2    0    0 -4.1522794010e+01 -2.2690148299e+01 +3.9896615214e+02 4.2078855080e+02 1.2510007466e+02 1.1177e+02 0.0000e+00
 -1000101  2    1    2    0    0 +4.1522794010e+01 +2.2690148299e+01 +2.5636907591e+02 2.8916108485e+02 1.2510013853e+02 1.0600e+02 0.0000e+00
       11  1    3    3    0    0 -7.9253115299e-03 +1.7115601858e-02 +5.6466990464e-01 5.6498505884e-01 5.1100000000e-04 0.0000e+00 1.0000e+00
      255  1    3    3    0    0 -4.1514868699e+01 -2.2707263901e+01 +3.9840148223e+02 4.2022356574e+02 1.2500000000e+02 0.0000e+00 0.0000e+00
      -11  1    4    4    0    0 -5.8023769428e-02 -1.6815997783e-02 +5.1802454124e-02 7.9581976442e-02 5.1100000000e-04 0.0000e+00 -1.0000e+00
      255  1    4    4    0    0 +4.1580817780e+01 +2.2706964297e+01 +2.5631727345e+02 2.8908150288e+02 1.2500000000e+02 0.0000e+00 0.0000e+00
<mgrwt>
<rscale>  0 0.27306451E+03</rscale>
<asrwt>0</asrwt>
<pdfrwt beam="1">  1        2 0.10502191E+00 0.27306451E+03</pdfrwt>
<pdfrwt beam="2">  1       -2 0.42011084E-02 0.27306451E+03</pdfrwt>
<totfact> 0.10986176E+04</totfact>
</mgrwt>
</event>
<event>
 8      1 +1.6198320e-01 2.90483900e+02 7.81860800e-03 1.09009700e-01
       -4 -1    0    0    0  501 -0.0000000000e+00 +0.0000000000e+00 +1.7821067050e+01 1.7866262363e+01 1.2700000000e+00 0.0000e+00 -1.0000e+00
        4 -1    0    0  501    0 +0.0000000000e+00 -0.0000000000e+00 -1.1821790659e+03 1.1821797481e+03 1.2700000000e+00 0.0000e+00 1.0000e+00
  1000101  2    1    2    0    0 -3.8607286571e+01 -5.3448391914e+01 -4.4528956287e+02 4.6720450360e+02 1.2509996086e+02 1.1824e+01 0.0000e+00
 -1000101  2    1    2    0    0 +3.8607286571e+01 +5.3448391914e+01 -7.1906843602e+02 7.3284150687e+02 1.2509998141e+02 2.6571e+01 0.0000e+00
       11  1    3    3    0    0 -7.9817623942e-03 +4.1974855699e-02 -4.3772244217e-01 4.3980313157e-01 5.1100000000e-04 0.0000e+00 1.0000e+00
      255  1    3    3    0    0 -3.8599304809e+01 -5.3490366770e+01 -4.4485184043e+02 4.6676470046e+02 1.2500000000e+02 0.0000e+00 0.0000e+00
      -11  1    4    4    0    0 +1.7223476327e-02 -6.5026108642e-02 -4.1650962692e-01 4.2190706723e-01 5.1100000000e-04 0.0000e+00 -1.0000e+00
      255  1    4    4    0    0 +3.8590063095e+01 +5.3513418023e+01 -7.1865192639e+02 7.3241959981e+02 1.2500000000e+02 0.0000e+00 0.0000e+00
<mgrwt>
<rscale>  0 0.29048387E+03</rscale>
<asrwt>0</asrwt>
<pdfrwt beam="1">  1        4 0.18187717E+00 0.29048387E+03</pdfrwt>
<pdfrwt beam="2">  1       -4 0.27452326E-02 0.29048387E+03</pdfrwt>
<totfact> 0.22002426E+02</totfact>
</mgrwt>
</event>
<event>
 8      1 +1.6198320e-01 2.72622900e+02 7.81860800e-03 1.09978800e-01
        2 -1    0    0  501    0 +0.0000000000e+00 +0.0000000000e+00 +9.0384756750e+02 9.0384756751e+02 2.5500000000e-03 0.0000e+00 1.0000e+00
       -2 -1    0    0    0  501 -0.0000000000e+00 -0.0000000000e+00 -2.0557460164e+01 2.0557460323e+01 2.5500000000e-03 0.0000e+00 -1.0000e+00
  1000101  2    1    2    0    0 -3.1327709119e+01 +4.2247346815e+01 +3.9815138561e+02 4.2064329668e+02 1.2509993407e+02 1.5456e+02 0.0000e+00
 -1000101  2    1    2    0    0 +3.1327709119e+01 -4.2247346815e+01 +4.8513872173e+02 5.0376173115e+02 1.2510011504e+02 2.0865e+02 0.0000e+00
       11  1    3    3    0    0 -5.5058763647e-02 +9.6547563520e-03 +6.0199767247e-01 6.0458757890e-01 5.1100000000e-04 0.0000e+00 1.0000e+00
      255  1    3    3    0    0 -3.1272650355e+01 +4.2237692058e+01 +3.9754938794e+02 4.2003870910e+02 1.2500000000e+02 0.0000e+00 0.0000e+00
      -11  1    4    4    0    0 +7.9414216433e-03 -1.3588030318e-01 +5.1970042341e-01 5.3722929386e-01 5.1100000000e-04 0.0000e+00 -1.0000e+00
      255  1    4    4    0    0 +3.1319767697e+01 -4.2111466512e+01 +4.8461902131e+02 5.0322450186e+02 1.2500000000e+02 0.0000e+00 0.0000e+00
<mgrwt>
<rscale>  0 0.27262289E+03</rscale>
<asrwt>0</asrwt>
<pdfrwt beam="1">  1        2 0.13905344E+00 0.27262289E+03</pdfrwt>
<pdfrwt beam="2">  1       -2 0.31626869E-02 0.27262289E+03</pdfrwt>
<totfact> 0.11782191E+04</totfact>
</mgrwt>
</event>
<event>
 8      1 +1.6198320e-01 3.15062900e+02 7.81860800e-03 1.07794400e-01
        2 -1    0    0  501    0 +0.0000000000e+00 +0.0000000000e+00 +1.4822200398e+03 1.4822200398e+03 2.5500000000e-03 0.0000e+00 1.0000e+00
       -2 -1    0    0    0  501 -0.0000000000e+00 -0.0000000000e+00 -1.6742554548e+01 1.6742554742e+01 2.5500000000e-03 0.0000e+00 -1.0000e+00
  1000101  2    1    2    0    0 +5.2689359844e+01 -7.5046257077e+01 +8.6372738277e+02 8.7754380451e+02 1.2510007090e+02 8.6143e+00 0.0000e+00
 -1000101  2    1    2    0    0 -5.2689359844e+01 +7.5046257077e+01 +6.0175010249e+02 6.2141879004e+02 1.2510002971e+02 3.5827e+02 0.0000e+00
       11  1    3    3    0    0 -5.1364797121e-02 -8.0719314135e-02 +3.6496138878e-01 3.7729434992e-01 5.1100000000e-04 0.0000e+00 1.0000e+00
      255  1    3    3    0    0 +5.2740724641e+01 -7.4965537763e+01 +8.6336242138e+02 8.7716651016e+02 1.2500000000e+02 0.0000e+00 0.0000e+00
      -11  1    4    4    0    0 -8.9116669840e-02 +1.4850695128e-01 +4.7515551354e-01 5.0573621444e-01 5.1100000000e-04 0.0000e+00 -1.0000e+00
      255  1    4    4    0    0 -5.2600243174e+01 +7.4897750126e+01 +6.0127494697e+02 6.2091305383e+02 1.2500000000e+02 0.0000e+00 0.0000e+00
<mgrwt>
<rscale>  0 0.31506285E+03</rscale>
<asrwt>0</asrwt>
<pdfrwt beam="1">  1        2 0.22803382E+00 0.31506285E+03</pdfrwt>
<pdfrwt beam="2">  1       -2 0.25757780E-02 0.31506285E+03</pdfrwt>
<totfact> 0.74323483E+03</totfact>
</mgrwt>
</event>
<event>
 8      1 +1.6198320e-01 6.69338100e+02 7.81860800e-03 9.77115400e-02
       -2 -1    0    0    0  501 -0.0000000000e+00 +0.0000000000e+00 +1.3135720255e+03 1.3135720255e+03 2.5500000000e-03 0.0000e+00 1.0000e+00
        2 -1    0    0  501    0 +0.0000000000e+00 -0.0000000000e+00 -8.5266251039e+01 8.5266251078e+01 2.5500000000e-03 0.0000e+00 -1.0000e+00
  1000101  2    1    2    0    0 -3.2759166643e+01 +2.7569983125e+02 +9.0426136958e+02 9.5416046784e+02 1.2510001567e+02 4.2555e+00 0.0000e+00
 -1000101  2    1    2    0    0 +3.2759166643e+01 -2.7569983125e+02 +3.2404440484e+02 4.4467780870e+02 1.2510002916e+02 4.3580e+01 0.0000e+00
       11  1    3    3    0    0 -7.0951675711e-02 +4.3204987766e-01 +1.1740846944e+00 1.2530667851e+00 5.1100000000e-04 0.0000e+00 1.0000e+00
      255  1    3    3    0    0 -3.2688214967e+01 +2.7526778137e+02 +9.0308728489e+02 9.5290740105e+02 1.2500000000e+02 0.0000e+00 0.0000e+00
      -11  1    4    4    0    0 +8.7445855185e-02 -3.0158200792e-01 +2.3051743949e-01 3.8953438374e-01 5.1100000000e-04 0.0000e+00 -1.0000e+00
      255  1    4    4    0    0 +3.2671720788e+01 -2.7539824924e+02 +3.2381388740e+02 4.4428827432e+02 1.2500000000e+02 0.0000e+00 0.0000e+00
<mgrwt>
<rscale>  0 0.66933807E+03</rscale>
<asrwt>0</asrwt>
<pdfrwt beam="1">  1        2 0.13117886E-01 0.66933807E+03</pdfrwt>
<pdfrwt beam="2">  1       -2 0.20208798E+00 0.66933807E+03</pdfrwt>
<totfact> 0.62292690E+01</totfact>
</mgrwt>
</event>
<event>
 8      1 +1.6198320e-01 5.40476800e+02 7.81860800e-03 1.00372300e-01
        2 -1    0    0  501    0 +0.0000000000e+00 +0.0000000000e+00 +5.7314547518e+02 5.7314547519e+02 2.5500000000e-03 0.0000e+00 1.0000e+00
       -2 -1    0    0    0  501 -0.0000000000e+00 -0.0000000000e+00 -1.2741753962e+02 1.2741753965e+02 2.5500000000e-03 0.0000e+00 -1.0000e+00
  1000101  2    1    2    0    0 +2.1723805820e+02 +3.1385948792e+01 +3.4719946843e+02 4.2938904268e+02 1.2510006950e+02 3.4986e+01 0.0000e+00
 -1000101  2    1    2    0    0 -2.1723805820e+02 -3.1385948792e+01 +9.8528467132e+01 2.7117397215e+02 1.2510001050e+02 4.4269e+01 0.0000e+00
       11  1    3    3    0    0 +3.4718206617e-01 +2.5353716731e-02 +4.0346267330e-01 5.3287952475e-01 5.1100000000e-04 0.0000e+00 1.0000e+00
      255  1    3    3    0    0 +2.1689087613e+02 +3.1360595075e+01 +3.4679600575e+02 4.2885616316e+02 1.2500000000e+02 0.0000e+00 0.0000e+00
      -11  1    4    4    0    0 -3.6204229493e-01 -2.3530470915e-02 +1.1398584440e-01 3.8029112562e-01 5.1100000000e-04 0.0000e+00 -1.0000e+00
      255  1    4    4    0    0 -2.1687601590e+02 -3.1362418321e+01 +9.8414481287e+01 2.7079368102e+02 1.2500000000e+02 0.0000e+00 0.0000e+00
<mgrwt>
<rscale>  0 0.54047678E+03</rscale>
<asrwt>0</asrwt>
<pdfrwt beam="1">  1        2 0.88176224E-01 0.54047678E+03</pdfrwt>
<pdfrwt beam="2">  1       -2 0.19602699E-01 0.54047678E+03</pdfrwt>
<totfact> 0.11609477E+03</totfact>
</mgrwt>
</event>
<event>
 8      1 +1.6198320e-01 2.73460400e+02 7.81860800e-03 1.09931500e-01
       -2 -1    0    0    0  501 -0.0000000000e+00 +0.0000000000e+00 +4.0846930288e+02 4.0846930288e+02 2.5500000000e-03 0.0000e+00 -1.0000e+00
        2 -1    0    0  501    0 +0.0000000000e+00 -0.0000000000e+00 -4.5768779415e+01 4.5768779486e+01 2.5500000000e-03 0.0000e+00 1.0000e+00
  1000101  2    1    2    0    0 +5.2471309015e+01 -1.4999442677e+01 +1.6776565561e+02 2.1627203042e+02 1.2510017741e+02 3.3655e+01 0.0000e+00
 -1000101  2    1    2    0    0 -5.2471309015e+01 +1.4999442677e+01 +1.9493486785e+02 2.3796605195e+02 1.2510003049e+02 2.9932e+01 0.0000e+00
       11  1    3    3    0    0 +1.3544975569e-02 -9.0916709782e-02 +2.1823160122e-01 2.3680077570e-01 5.1100000000e-04 0.0000e+00 1.0000e+00
      255  1    3    3    0    0 +5.2457764040e+01 -1.4908525967e+01 +1.6754742401e+02 2.1603522964e+02 1.2500000000e+02 0.0000e+00 0.0000e+00
      -11  1    4    4    0    0 -7.2886306680e-02 +4.8263261210e-02 +3.3421216689e-01 3.4545591572e-01 5.1100000000e-04 0.0000e+00 -1.0000e+00
      255  1    4    4    0    0 -5.2398422709e+01 +1.4951179416e+01 +1.9460065569e+02 2.3762059604e+02 1.2500000000e+02 0.0000e+00 0.0000e+00
<mgrwt>
<rscale>  0 0.27346036E+03</rscale>
<asrwt>0</asrwt>
<pdfrwt beam="1">  1        2 0.70413505E-02 0.27346036E+03</pdfrwt>
<pdfrwt beam="2">  1       -2 0.62841433E-01 0.27346036E+03</pdfrwt>
<totfact> 0.23989610E+03</totfact>
</mgrwt>
</event>
<event>
 8      1 +1.6198320e-01 3.08747500e+02 7.81860800e-03 1.08094800e-01
        2 -1    0    0  501    0 +0.0000000000e+00 +0.0000000000e+00 +8.2445832697e+02 8.2445832697e+02 2.5500000000e-03 0.0000e+00 1.0000e+00
       -2 -1    0    0    0  501 -0.0000000000e+00 -0.0000000000e+00 -2.8905341067e+01 2.8905341180e+01 2.5500000000e-03 0.0000e+00 -1.0000e+00
  1000101  2    1    2    0    0 +4.1478362323e+00 +4.3888252781e+01 +1.7947944901e+02 2.2317321258e+02 1.2510006762e+02 1.0226e+02 0.0000e+00
 -1000101  2    1    2    0    0 -4.1478362323e+00 -4.3888252781e+01 +6.1607353689e+02 6.3019045557e+02 1.2510005658e+02 8.8309e+01 0.0000e+00
       11  1    3    3    0    0 -7.5965282267e-02 +1.0866266523e-02 +2.2512213567e-01 2.3784246246e-01 5.1100000000e-04 0.0000e+00 1.0000e+00
      255  1    3    3    0    0 +4.2238015145e+00 +4.3877386515e+01 +1.7925432687e+02 2.2293537012e+02 1.2500000000e+02 0.0000e+00 0.0000e+00
      -11  1    4    4    0    0 -2.0963890772e-02 +6.7508459142e-02 +4.1704523759e-01 4.2299393387e-01 5.1100000000e-04 0.0000e+00 -1.0000e+00
      255  1    4    4    0    0 -4.1268723415e+00 -4.3955761241e+01 +6.1565649165e+02 6.2976746163e+02 1.2500000000e+02 0.0000e+00 0.0000e+00
<mgrwt>
<rscale>  0 0.30874746E+03</rscale>
<asrwt>0</asrwt>
<pdfrwt beam="1">  1        2 0.12683974E+00 0.30874746E+03</pdfrwt>
<pdfrwt beam="2">  1       -2 0.44469757E-02 0.30874746E+03</pdfrwt>
<totfact> 0.79977348E+03</totfact>
</mgrwt>
</event>
<event>
 8      1 +1.6198320e-01 3.05188200e+02 7.81860800e-03 1.08267500e-01
        2 -1    0    0  501    0 +0.0000000000e+00 +0.0000000000e+00 +2.2987898195e+03 2.2987898195e+03 2.5500000000e-03 0.0000e+00 1.0000e+00
       -2 -1    0    0    0  501 -0.0000000000e+00 -0.0000000000e+00 -1.0129221694e+01 1.0129222015e+01 2.5500000000e-03 0.0000e+00 -1.0000e+00
  1000101  2    1    2    0    0 +8.5278303798e+01 -9.1502318091e+00 +1.0179973614e+03 1.0292350279e+03 1.2509995612e+02 2.3631e+01 0.0000e+00
 -1000101  2    1    2    0    0 -8.5278303798e+01 +9.1502318091e+00 +1.2706632364e+03 1.2796840136e+03 1.2509995396e+02 2.0718e+01 0.0000e+00
       11  1    3    3    0    0 +1.1738655219e-01 +5.7303651526e-02 +1.3991538564e+00 1.4052384446e+00 5.1100000000e-04 0.0000e+00 1.0000e+00
      255  1    3    3    0    0 +8.5160917246e+01 -9.2075354607e+00 +1.0165982075e+03 1.0278297895e+03 1.2500000000e+02 0.0000e+00 0.0000e+00
      -11  1    4    4    0    0 -1.7164652701e-01 -7.5919553249e-03 +1.0881315104e+00 1.1016127328e+00 5.1100000000e-04 0.0000e+00 -1.0000e+00
      255  1    4    4    0    0 -8.5106657271e+01 +9.1578237645e+00 +1.2695751049e+03 1.2785824009e+03 1.2500000000e+02 0.0000e+00 0.0000e+00
<mgrwt>
<rscale>  0 0.30518815E+03</rscale>
<asrwt>0</asrwt>
<pdfrwt beam="1">  1        2 0.35366001E+00 0.30518815E+03</pdfrwt>
<pdfrwt beam="2">  1       -2 0.15583417E-02 0.30518815E+03</pdfrwt>
<totfact> 0.57511049E+03</totfact>
</mgrwt>
</event>
<event>
 8      1 +1.6198320e-01 2.86915000e+02 7.81860800e-03 1.09197100e-01
        2 -1    0    0  501    0 +0.0000000000e+00 +0.0000000000e+00 +1.5576417045e+03 1.5576417045e+03 2.5500000000e-03 0.0000e+00 1.0000e+00
       -2 -1    0    0    0  501 -0.0000000000e+00 -0.0000000000e+00 -1.3212316741e+01 1.3212316987e+01 2.5500000000e-03 0.0000e+00 -1.0000e+00
  1000101  2    1    2    0    0 +5.0632227623e+01 +1.6393797018e+00 +5.0602974912e+02 5.2371976962e+02 1.2509988034e+02 2.4128e+02 0.0000e+00
 -1000101  2    1    2    0    0 -5.0632227623e+01 -1.6393797018e+00 +1.0383996387e+03 1.0471342519e+03 1.2510004742e+02 1.9518e+02 0.0000e+00
       11  1    3    3    0    0 +9.5749289179e-02 -4.3860461641e-02 +7.6142309789e-01 7.6867227191e-01 5.1100000000e-04 0.0000e+00 1.0000e+00
      255  1    3    3    0    0 +5.0536478334e+01 +1.6832401635e+00 +5.0526832602e+02 5.2295109735e+02 1.2500000000e+02 0.0000e+00 0.0000e+00
      -11  1    4    4    0    0 -6.7068332056e-02 -9.4470402091e-02 +7.0470671220e-01 7.1416708786e-01 5.1100000000e-04 0.0000e+00 -1.0000e+00
      255  1    4    4    0    0 -5.0565159291e+01 -1.5449092997e+00 +1.0376949320e+03 1.0464200848e+03 1.2500000000e+02 0.0000e+00 0.0000e+00
<mgrwt>
<rscale>  0 0.28691501E+03</rscale>
<asrwt>0</asrwt>
<pdfrwt beam="1">  1        2 0.23963710E+00 0.28691501E+03</pdfrwt>
<pdfrwt beam="2">  1       -2 0.20326649E-02 0.28691501E+03</pdfrwt>
<totfact> 0.96022673E+03</totfact>
</mgrwt>
</event>
<event>
 8      1 +1.6198320e-01 3.14942800e+02 7.81860800e-03 1.07800100e-01
       -2 -1    0    0    0  501 -0.0000000000e+00 +0.0000000000e+00 +1.4618984530e+02 1.4618984532e+02 2.5500000000e-03 0.0000e+00 -1.0000e+00
        2 -1    0    0  501    0 +0.0000000000e+00 -0.0000000000e+00 -1.6962352511e+02 1.6962352513e+02 2.5500000000e-03 0.0000e+00 1.0000e+00
  1000101  2    1    2    0    0 -4.8014524762e+01 -3.8883561955e+01 -8.4924711373e+01 1.6333869930e+02 1.2509995247e+02 1.8585e+02 0.0000e+00
 -1000101  2    1    2    0    0 +4.8014524762e+01 +3.8883561955e+01 +6.1491031561e+01 1.5247467116e+02 1.2510016948e+02 9.2130e+01 0.0000e+00
       11  1    3    3    0    0 -1.4019726615e-01 -2.6586409373e-02 -1.2006617377e-01 1.8648929675e-01 5.1100000000e-04 0.0000e+00 1.0000e+00
      255  1    3    3    0    0 -4.7874327496e+01 -3.8856975546e+01 -8.4804645199e+01 1.6315221000e+02 1.2500000000e+02 0.0000e+00 0.0000e+00
      -11  1    4    4    0    0 +1.0931827267e-01 +1.1129474234e-01 +3.9742107145e-02 1.6098664732e-01 5.1100000000e-04 0.0000e+00 -1.0000e+00
      255  1    4    4    0    0 +4.7905206490e+01 +3.8772267213e+01 +6.1451289454e+01 1.5231368451e+02 1.2500000000e+02 0.0000e+00 0.0000e+00
<mgrwt>
<rscale>  0 0.31494277E+03</rscale>
<asrwt>0</asrwt>
<pdfrwt beam="1">  1        2 0.26095927E-01 0.31494277E+03</pdfrwt>
<pdfrwt beam="2">  1       -2 0.22490745E-01 0.31494277E+03</pdfrwt>
<totfact> 0.35129317E+03</totfact>
</mgrwt>
</event>
<event>
 8      1 +1.6198320e-01 3.30512100e+02 7.81860800e-03 1.07091000e-01
       -2 -1    0    0    0  501 -0.0000000000e+00 +0.0000000000e+00 +3.8202526578e+02 3.8202526579e+02 2.5500000000e-03 0.0000e+00 -1.0000e+00
        2 -1    0    0  501    0 +0.0000000000e+00 -0.0000000000e+00 -7.1486285524e+01 7.1486285570e+01 2.5500000000e-03 0.0000e+00 1.0000e+00
  1000101  2    1    2    0    0 +6.2478993975e+01 +4.9527471150e+01 +5.5347600893e+01 1.5833490841e+02 1.2509992490e+02 1.3536e+02 0.0000e+00
 -1000101  2    1    2    0    0 -6.2478993975e+01 -4.9527471150e+01 +2.5519137936e+02 2.9517664295e+02 1.2510002141e+02 1.8681e+02 0.0000e+00
       11  1    3    3    0    0 +2.3723690913e-02 +1.3686852835e-01 +3.4295342282e-02 1.4308123283e-01 5.1100000000e-04 0.0000e+00 1.0000e+00
      255  1    3    3    0    0 +6.2455270284e+01 +4.9390602622e+01 +5.5313305550e+01 1.5819182717e+02 1.2500000000e+02 0.0000e+00 0.0000e+00
      -11  1    4    4    0    0 -2.7829696918e-02 -9.5041870023e-02 +3.8041329963e-01 3.9309285003e-01 5.1100000000e-04 0.0000e+00 -1.0000e+00
      255  1    4    4    0    0 -6.2451164278e+01 -4.9432429280e+01 +2.5481096606e+02 2.9478355010e+02 1.2500000000e+02 0.0000e+00 0.0000e+00
<mgrwt>
<rscale>  0 0.33051213E+03</rscale>
<asrwt>0</asrwt>
<pdfrwt beam="1">  1        2 0.10997890E-01 0.33051213E+03</pdfrwt>
<pdfrwt beam="2">  1       -2 0.58773118E-01 0.33051213E+03</pdfrwt>
<totfact> 0.15772567E+03</totfact>
</mgrwt>
</event>
<event>
 8      1 +1.6198320e-01 2.82722000e+02 7.81860800e-03 1.09421100e-01
        2 -1    0    0  501    0 +0.0000000000e+00 +0.0000000000e+00 +7.0953469909e+02 7.0953469910e+02 2.5500000000e-03 0.0000e+00 1.0000e+00
       -2 -1    0    0    0  501 -0.0000000000e+00 -0.0000000000e+00 -2.8163423957e+01 2.8163424072e+01 2.5500000000e-03 0.0000e+00 -1.0000e+00
  1000101  2    1    2    0    0 +6.4103957812e+01 +1.4275517803e+01 +3.5228938382e+02 3.7956681001e+02 1.2510014186e+02 5.1884e+01 0.0000e+00
 -1000101  2    1    2    0    0 -6.4103957812e+01 -1.4275517803e+01 +3.2908189131e+02 3.5813131316e+02 1.2510011374e+02 8.1410e+01 0.0000e+00
       11  1    3    3    0    0 +1.5155378006e-01 +5.3174476399e-02 +4.7668346365e-01 5.0301437239e-01 5.1100000000e-04 0.0000e+00 1.0000e+00
      255  1    3    3    0    0 +6.3952404032e+01 +1.4222343326e+01 +3.5181270036e+02 3.7906379564e+02 1.2500000000e+02 0.0000e+00 0.0000e+00
      -11  1    4    4    0    0 -1.3794367053e-01 -5.7129967529e-02 +2.4284162707e-01 2.8506947643e-01 5.1100000000e-04 0.0000e+00 -1.0000e+00
      255  1    4    4    0    0 -6.3966014142e+01 -1.4218387835e+01 +3.2883904969e+02 3.5784624368e+02 1.2500000000e+02 0.0000e+00 0.0000e+00
<mgrwt>
<rscale>  0 0.28272196E+03</rscale>
<asrwt>0</asrwt>
<pdfrwt beam="1">  1        2 0.10915917E+00 0.28272196E+03</pdfrwt>
<pdfrwt beam="2">  1       -2 0.43328349E-02 0.28272196E+03</pdfrwt>
<totfact> 0.10018814E+04</totfact>
</mgrwt>
</event>
<event>
 8      1 +1.6198320e-01 2.55587200e+02 7.81860800e-03 1.10982400e-01
       -2 -1    0    0    0  501 -0.0000000000e+00 +0.0000000000e+00 +8.6510162886e+00 8.6510166645e+00 2.5500000000e-03 0.0000e+00 -1.0000e+00
        2 -1    0    0  501    0 +0.0000000000e+00 -0.0000000000e+00 -1.8877792771e+03 1.8877792771e+03 2.5500000000e-03 0.0000e+00 1.0000e+00
  1000101  2    1    2    0    0 -4.0312282810e+00 +1.6857496411e+01 -7.9478183747e+02 8.0475378303e+02 1.2510018441e+02 5.3439e+01 0.0000e+00
 -1000101  2    1    2    0    0 +4.0312282810e+00 -1.6857496411e+01 -1.0843464233e+03 1.0916765107e+03 1.2510000918e+02 6.5868e+01 0.0000e+00
       11  1    3    3    0    0 +3.4559383546e-02 +5.2984283892e-02 -1.1971336297e+00 1.1988039347e+00 5.1100000000e-04 0.0000e+00 1.0000e+00
      255  1    3    3    0    0 -4.0657876646e+00 +1.6804512127e+01 -7.9358470384e+02 8.0355497910e+02 1.2500000000e+02 0.0000e+00 0.0000e+00
      -11  1    4    4    0    0 +5.9496745715e-02 -9.4404175197e-02 -7.9435893932e-01 8.0215858572e-01 5.1100000000e-04 0.0000e+00 -1.0000e+00
      255  1    4    4    0    0 +3.9717315353e+00 -1.6763092236e+01 -1.0835520644e+03 1.0908743521e+03 1.2500000000e+02 0.0000e+00 0.0000e+00
<mgrwt>
<rscale>  0 0.25558724E+03</rscale>
<asrwt>0</asrwt>
<pdfrwt beam="1">  1        2 0.29042725E+00 0.25558724E+03</pdfrwt>
<pdfrwt beam="2">  1       -2 0.13309271E-02 0.25558724E+03</pdfrwt>
<totfact> 0.11941299E+04</totfact>
</mgrwt>
</event>
<event>
 8      1 +1.6198320e-01 3.32341000e+02 7.81860800e-03 1.07010600e-01
       -2 -1    0    0    0  501 -0.0000000000e+00 +0.0000000000e+00 +2.4210079992e+01 2.4210080126e+01 2.5500000000e-03 0.0000e+00 -1.0000e+00
        2 -1    0    0  501    0 +0.0000000000e+00 -0.0000000000e+00 -1.1405430292e+03 1.1405430292e+03 2.5500000000e-03 0.0000e+00 1.0000e+00
  1000101  2    1    2    0    0 +7.2153821820e+01 +2.1291522589e+01 -8.3641169533e+02 8.4905479700e+02 1.2510004513e+02 4.6418e+01 0.0000e+00
 -1000101  2    1    2    0    0 -7.2153821820e+01 -2.1291522589e+01 -2.7992125390e+02 3.1569831235e+02 1.2510001238e+02 2.0892e+02 0.0000e+00
       11  1    3    3    0    0 -7.5313213757e-03 -2.8624173589e-02 -8.6430320702e-01 8.6481001318e-01 5.1100000000e-04 0.0000e+00 1.0000e+00
      255  1    3    3    0    0 +7.2161353141e+01 +2.1320146763e+01 -8.3554739212e+02 8.4818998699e+02 1.2500000000e+02 0.0000e+00 0.0000e+00
      -11  1    4    4    0    0 -4.1448803658e-03 +1.2225068296e-02 +1.8950748869e-02 2.2935220351e-02 5.1100000000e-04 0.0000e+00 -1.0000e+00
      255  1    4    4    0    0 -7.2149676939e+01 -2.1303747657e+01 -2.7994020465e+02 3.1567537713e+02 1.2500000000e+02 0.0000e+00 0.0000e+00
<mgrwt>
<rscale>  0 0.33234102E+03</rscale>
<asrwt>0</asrwt>
<pdfrwt beam="1">  1        2 0.17546812E+00 0.33234102E+03</pdfrwt>
<pdfrwt beam="2">  1       -2 0.37246286E-02 0.33234102E+03</pdfrwt>
<totfact> 0.66420684E+03</totfact>
</mgrwt>
</event>
<event>
 8      1 +1.6198320e-01 2.56814400e+02 7.81860800e-03 1.10907200e-01
        2 -1    0    0  501    0 +0.0000000000e+00 +0.0000000000e+00 +4.2546703260e+02 4.2546703260e+02 2.5500000000e-03 0.0000e+00 1.0000e+00
       -2 -1    0    0    0  501 -0.0000000000e+00 -0.0000000000e+00 -3.8753671879e+01 3.8753671963e+01 2.5500000000e-03 0.0000e+00 -1.0000e+00
  1000101  2    1    2    0    0 -1.7875708774e+01 +2.2652927084e+01 +1.8905348747e+02 2.2852553302e+02 1.2509996821e+02 4.2470e+01 0.0000e+00
 -1000101  2    1    2    0    0 +1.7875708774e+01 -2.2652927084e+01 +1.9765987324e+02 2.3569517155e+02 1.2510032906e+02 9.9916e+01 0.0000e+00
       11  1    3    3    0    0 +4.0790706407e-03 +1.0518427466e-02 +3.1974064182e-01 3.1994001827e-01 5.1100000000e-04 0.0000e+00 1.0000e+00
      255  1    3    3    0    0 -1.7879787844e+01 +2.2642408656e+01 +1.8873374683e+02 2.2820559300e+02 1.2500000000e+02 0.0000e+00 0.0000e+00
      -11  1    4    4    0    0 -5.5178881521e-02 +5.7400494059e-02 +1.3549934883e-01 1.5716189214e-01 5.1100000000e-04 0.0000e+00 -1.0000e+00
      255  1    4    4    0    0 +1.7930887655e+01 -2.2710327578e+01 +1.9752437389e+02 2.3553800966e+02 1.2500000000e+02 0.0000e+00 0.0000e+00
<mgrwt>
<rscale>  0 0.25681441E+03</rscale>
<asrwt>0</asrwt>
<pdfrwt beam="1">  1        2 0.65456470E-01 0.25681441E+03</pdfrwt>
<pdfrwt beam="2">  1       -2 0.59621030E-02 0.25681441E+03</pdfrwt>
<totfact> 0.11026826E+04</totfact>
</mgrwt>
</event>
<event>
 8      1 +1.6198320e-01 3.56267300e+02 7.81860800e-03 1.06007200e-01
       -2 -1    0    0    0  501 -0.0000000000e+00 +0.0000000000e+00 +3.0337027565e+01 3.0337027672e+01 2.5500000000e-03 0.0000e+00 -1.0000e+00
        2 -1    0    0  501    0 +0.0000000000e+00 -0.0000000000e+00 -1.0459692396e+03 1.0459692396e+03 2.5500000000e-03 0.0000e+00 1.0000e+00
  1000101  2    1    2    0    0 -9.2644603405e+01 -1.2284568244e+00 -7.6939536383e+02 7.8498646235e+02 1.2509991429e+02 1.7543e+01 0.0000e+00
 -1000101  2    1    2    0    0 +9.2644603405e+01 +1.2284568244e+00 -2.4623684818e+02 2.9131980490e+02 1.2510040638e+02 2.1076e+00 0.0000e+00
       11  1    3    3    0    0 +2.1540493827e-02 -5.8303763317e-02 -4.7338641922e-01 4.7744977193e-01 5.1100000000e-04 0.0000e+00 1.0000e+00
      255  1    3    3    0    0 -9.2666143899e+01 -1.1701530611e+00 -7.6892197741e+02 7.8450901258e+02 1.2500000000e+02 0.0000e+00 0.0000e+00
      -11  1    4    4    0    0 +1.2328968846e-01 +2.8045203022e-02 -7.8653167867e-02 1.4890756404e-01 5.1100000000e-04 0.0000e+00 -1.0000e+00
      255  1    4    4    0    0 +9.2521313716e+01 +1.2004116214e+00 -2.4615819502e+02 2.9117089733e+02 1.2500000000e+02 0.0000e+00 0.0000e+00
<mgrwt>
<rscale>  0 0.35626730E+03</rscale>
<asrwt>0</asrwt>
<pdfrwt beam="1">  1        2 0.16091832E+00 0.35626730E+03</pdfrwt>
<pdfrwt beam="2">  1       -2 0.46672358E-02 0.35626730E+03</pdfrwt>
<totfact> 0.53749768E+03</totfact>
</mgrwt>
</event>
<event>
 8      1 +1.6198320e-01 4.91969800e+02 7.81860800e-03 1.01589600e-01
        2 -1    0    0  501    0 +0.0000000000e+00 +0.0000000000e+00 +9.0382146701e+02 9.0382146701e+02 2.5500000000e-03 0.0000e+00 1.0000e+00
       -2 -1    0    0    0  501 -0.0000000000e+00 -0.0000000000e+00 -6.6947474110e+01 6.6947474158e+01 2.5500000000e-03 0.0000e+00 -1.0000e+00
  1000101  2    1    2    0    0 -1.1304373039e+02 +9.3476058387e+01 +1.1696581920e+02 2.2549419932e+02 1.2509985048e+02 2.2665e+02 0.0000e+00
 -1000101  2    1    2    0    0 +1.1304373039e+02 -9.3476058387e+01 +7.1990817370e+02 7.4527474185e+02 1.2509997529e+02 5.2924e+01 0.0000e+00
       11  1    3    3    0    0 -7.5970179459e-03 -2.7430521450e-02 +9.0228448304e-02 9.4612801426e-02 5.1100000000e-04 0.0000e+00 1.0000e+00
      255  1    3    3    0    0 -1.1303613338e+02 +9.3503488909e+01 +1.1687559075e+02 2.2539958651e+02 1.2500000000e+02 0.0000e+00 0.0000e+00
      -11  1    4    4    0    0 +1.9827336160e-01 -4.8884237148e-02 +8.2540145794e-01 8.5028808204e-01 5.1100000000e-04 0.0000e+00 -1.0000e+00
      255  1    4    4    0    0 +1.1284545703e+02 -9.3427174150e+01 +7.1908277224e+02 7.4442445377e+02 1.2500000000e+02 0.0000e+00 0.0000e+00
<mgrwt>
<rscale>  0 0.49196977E+03</rscale>
<asrwt>0</asrwt>
<pdfrwt beam="1">  1        2 0.13904944E+00 0.49196977E+03</pdfrwt>
<pdfrwt beam="2">  1       -2 0.10299613E-01 0.49196977E+03</pdfrwt>
<totfact> 0.19141424E+03</totfact>
</mgrwt>
</event>
<event>
 8      1 +1.6198320e-01 3.76224300e+02 7.81860800e-03 1.05233800e-01
        2 -1    0    0  501    0 +0.0000000000e+00 +0.0000000000e+00 +1.9037001918e+03 1.9037001918e+03 2.5500000000e-03 0.0000e+00 1.0000e+00
       -2 -1    0    0    0  501 -0.0000000000e+00 -0.0000000000e+00 -1.8588105677e+01 1.8588105852e+01 2.5500000000e-03 0.0000e+00 -1.0000e+00
  1000101  2    1    2    0    0 -9.4689641862e+01 -9.3008908082e+01 +1.1777772800e+03 1.1918163048e+03 1.2509995196e+02 9.6159e+01 0.0000e+00
 -1000101  2    1    2    0    0 +9.4689641862e+01 +9.3008908082e+01 +7.0733480620e+02 7.3047199287e+02 1.2510003617e+02 6.1057e+01 0.0000e+00
       11  1    3    3    0    0 -1.4345067848e-03 -1.2640389128e-01 +1.1486698809e+00 1.1556049316e+00 5.1100000000e-04 0.0000e+00 1.0000e+00
      255  1    3    3    0    0 -9.4688207355e+01 -9.2882504191e+01 +1.1766286101e+03 1.1906606999e+03 1.2500000000e+02 0.0000e+00 0.0000e+00
      -11  1    4    4    0    0 +2.2326634354e-02 +1.1072069708e-01 +2.2195410412e-01 2.4904103441e-01 5.1100000000e-04 0.0000e+00 -1.0000e+00
      255  1    4    4    0    0 +9.4667315227e+01 +9.2898187385e+01 +7.0711285209e+02 7.3022295184e+02 1.2500000000e+02 0.0000e+00 0.0000e+00
<mgrwt>
<rscale>  0 0.37622430E+03</rscale>
<asrwt>0</asrwt>
<pdfrwt beam="1">  1        2 0.29287701E+00 0.37622430E+03</pdfrwt>
<pdfrwt beam="2">  1       -2 0.28597080E-02 0.37622430E+03</pdfrwt>
<totfact> 0.37908202E+03</totfact>
</mgrwt>
</event>
<event>
 8      1 +1.6198320e-01 3.70202900e+02 7.81860800e-03 1.05461500e-01
        2 -1    0    0  501    0 +0.0000000000e+00 +0.0000000000e+00 +5.5102291324e+02 5.5102291325e+02 2.5500000000e-03 0.0000e+00 1.0000e+00
       -2 -1    0    0    0  501 -0.0000000000e+00 -0.0000000000e+00 -6.2179900230e+01 6.2179900282e+01 2.5500000000e-03 0.0000e+00 -1.0000e+00
  1000101  2    1    2    0    0 -7.3237870021e+01 +5.8871427473e+01 +4.0825337920e+02 4.3720755764e+02 1.2509994504e+02 5.7962e+01 0.0000e+00
 -1000101  2    1    2    0    0 +7.3237870021e+01 -5.8871427473e+01 +8.0589633812e+01 1.7599525589e+02 1.2510000176e+02 2.2566e+01 0.0000e+00
       11  1    3    3    0    0 -1.4775288776e-01 +1.2764337394e-01 +4.3959380374e-01 4.8100594608e-01 5.1100000000e-04 0.0000e+00 1.0000e+00
      255  1    3    3    0    0 -7.3090117133e+01 +5.8743784099e+01 +4.0781378540e+02 4.3672655169e+02 1.2500000000e+02 0.0000e+00 0.0000e+00
      -11  1    4    4    0    0 +1.2324851892e-01 -4.6412581077e-02 -1.2233560679e-02 1.3226581654e-01 5.1100000000e-04 0.0000e+00 -1.0000e+00
      255  1    4    4    0    0 +7.3114621502e+01 -5.8825014892e+01 +8.0601867373e+01 1.7586299008e+02 1.2500000000e+02 0.0000e+00 0.0000e+00
<mgrwt>
<rscale>  0 0.37020292E+03</rscale>
<asrwt>0</asrwt>
<pdfrwt beam="1">  1        2 0.84772760E-01 0.37020292E+03</pdfrwt>
<pdfrwt beam="2">  1       -2 0.95661381E-02 0.37020292E+03</pdfrwt>
<totfact> 0.39880855E+03</totfact>
</mgrwt>
</event>
<event>
 8      1 +1.6198320e-01 2.62599100e+02 7.81860800e-03 1.10559200e-01
       -2 -1    0    0    0  501 -0.0000000000e+00 +0.0000000000e+00 +9.4361510238e+00 9.4361513684e+00 2.5500000000e-03 0.0000e+00 -1.0000e+00
        2 -1    0    0  501    0 +0.0000000000e+00 -0.0000000000e+00 -1.8269707666e+03 1.8269707666e+03 2.5500000000e-03 0.0000e+00 1.0000e+00
  1000101  2    1    2    0    0 -1.4243122680e+01 -2.1464833168e+01 -6.9597434814e+02 7.0759725996e+02 1.2509989381e+02 4.8749e+01 0.0000e+00
 -1000101  2    1    2    0    0 +1.4243122680e+01 +2.1464833168e+01 -1.1215602675e+03 1.1288096580e+03 1.2510077902e+02 1.2182e+02 0.0000e+00
       11  1    3    3    0    0 +4.7499183155e-02 -9.1653540381e-02 -7.6206951714e-01 7.6902974841e-01 5.1100000000e-04 0.0000e+00 1.0000e+00
      255  1    3    3    0    0 -1.4290621863e+01 -2.1373179628e+01 -6.9521227862e+02 7.0682823021e+02 1.2500000000e+02 0.0000e+00 0.0000e+00
      -11  1    4    4    0    0 +1.4717966932e-02 +8.7907267109e-02 -3.6717618411e-01 3.7783980397e-01 5.1100000000e-04 0.0000e+00 -1.0000e+00
      255  1    4    4    0    0 +1.4228404713e+01 +2.1376925901e+01 -1.1211930913e+03 1.1284318182e+03 1.2500000000e+02 0.0000e+00 0.0000e+00
<mgrwt>
<rscale>  0 0.26259910E+03</rscale>
<asrwt>0</asrwt>
<pdfrwt beam="1">  1        2 0.28107214E+00 0.26259910E+03</pdfrwt>
<pdfrwt beam="2">  1       -2 0.14517170E-02 0.26259910E+03</pdfrwt>
<totfact> 0.11326285E+04</totfact>
</mgrwt>
</event>
<event>
 8      1 +1.6198320e-01 2.82559100e+02 7.81860800e-03 1.09429900e-01
        1 -1    0    0  501    0 +0.0000000000e+00 +0.0000000000e+00 +7.8113404942e+02 7.8113404944e+02 5.0400000000e-03 0.0000e+00 1.0000e+00
       -1 -1    0    0    0  501 -0.0000000000e+00 -0.0000000000e+00 -2.5552485156e+01 2.5552485653e+01 5.0400000000e-03 0.0000e+00 -1.0000e+00
  1000101  2    1    2    0    0 +1.2432931109e+00 +5.8947793588e+01 +2.9536826529e+02 3.2614240338e+02 1.2510022779e+02 7.9618e+01 0.0000e+00
 -1000101  2    1    2    0    0 -1.2432931109e+00 -5.8947793588e+01 +4.6021329898e+02 4.8054413171e+02 1.2509993534e+02 1.3537e+02 0.0000e+00
       11  1    3    3    0    0 -5.3496679136e-02 +1.2797065315e-01 +4.0616653431e-01 4.2919680505e-01 5.1100000000e-04 0.0000e+00 1.0000e+00
      255  1    3    3    0    0 +1.2967897901e+00 +5.8819822935e+01 +2.9496209876e+02 3.2571320657e+02 1.2500000000e+02 0.0000e+00 0.0000e+00
      -11  1    4    4    0    0 -1.2538622294e-02 +4.1787919160e-02 +3.9902014117e-02 5.9125959515e-02 5.1100000000e-04 0.0000e+00 -1.0000e+00
      255  1    4    4    0    0 -1.2307544886e+00 -5.8989581507e+01 +4.6017339696e+02 4.8048500576e+02 1.2500000000e+02 0.0000e+00 0.0000e+00
<mgrwt>
<rscale>  0 0.28255914E+03</rscale>
<asrwt>0</asrwt>
<pdfrwt beam="1">  1        1 0.12017447E+00 0.28255914E+03</pdfrwt>
<pdfrwt beam="2">  1       -1 0.39311515E-02 0.28255914E+03</pdfrwt>
<totfact> 0.60270311E+03</totfact>
</mgrwt>
</event>
<event>
 8      1 +1.6198320e-01 4.14728000e+02 7.81860800e-03 1.03879600e-01
       -2 -1    0    0    0  501 -0.0000000000e+00 +0.0000000000e+00 +3.7759757907e+01 3.7759757993e+01 2.5500000000e-03 0.0000e+00 1.0000e+00
        2 -1    0    0  501    0 +0.0000000000e+00 -0.0000000000e+00 -1.1387737468e+03 1.1387737468e+03 2.5500000000e-03 0.0000e+00 -1.0000e+00
  1000101  2    1    2    0    0 -5.1598841211e+00 -1.0806991628e+00 -1.0194253217e+03 1.0270860657e+03 1.2509998990e+02 3.8892e+01 0.0000e+00
 -1000101  2    1    2    0    0 +5.1598841211e+00 +1.0806991628e+00 -8.1588667192e+01 1.4944743912e+02 1.2510009644e+02 1.3655e+02 0.0000e+00
       11  1    3    3    0    0 +7.9472293497e-02 -5.3971069393e-02 -6.7705754093e-01 6.8383908678e-01 5.1100000000e-04 0.0000e+00 1.0000e+00
      255  1    3    3    0    0 -5.2393564146e+00 -1.0267280934e+00 -1.0187482642e+03 1.0264022266e+03 1.2500000000e+02 0.0000e+00 0.0000e+00
      -11  1    4    4    0    0 -3.9032147125e-02 +2.5643812055e-02 -1.6785443930e-01 1.7423113246e-01 5.1100000000e-04 0.0000e+00 -1.0000e+00
      255  1    4    4    0    0 +5.1989162682e+00 +1.0550553508e+00 -8.1420812752e+01 1.4927320798e+02 1.2500000000e+02 0.0000e+00 0.0000e+00
<mgrwt>
<rscale>  0 0.41472796E+03</rscale>
<asrwt>0</asrwt>
<pdfrwt beam="1">  1        2 0.17519593E+00 0.41472796E+03</pdfrwt>
<pdfrwt beam="2">  1       -2 0.58091944E-02 0.41472796E+03</pdfrwt>
<totfact> 0.33825683E+03</totfact>
</mgrwt>
</event>
<event>
 8      1 +1.6198320e-01 4.73594200e+02 7.81860800e-03 1.02091100e-01
       -2 -1    0    0    0  501 -0.0000000000e+00 +0.0000000000e+00 +3.2415903038e+01 3.2415903139e+01 2.5500000000e-03 0.0000e+00 -1.0000e+00
        2 -1    0    0  501    0 +0.0000000000e+00 -0.0000000000e+00 -1.7297950818e+03 1.7297950818e+03 2.5500000000e-03 0.0000e+00 1.0000e+00
  1000101  2    1    2    0    0 +1.0149196189e+01 -1.4469228332e+02 -1.3667415380e+03 1.3800982965e+03 1.2510001291e+02 1.1638e+02 0.0000e+00
 -1000101  2    1    2    0    0 -1.0149196189e+01 +1.4469228332e+02 -3.3063764072e+02 3.8211268841e+02 1.2509993665e+02 1.4534e+02 0.0000e+00
       11  1    3    3    0    0 -6.5704562588e-02 -1.9675668051e-01 -1.7569123672e+00 1.7691160528e+00 5.1100000000e-04 0.0000e+00 1.0000e+00
      255  1    3    3    0    0 +1.0214900751e+01 -1.4449552664e+02 -1.3649846257e+03 1.3783291805e+03 1.2500000000e+02 0.0000e+00 0.0000e+00
      -11  1    4    4    0    0 -8.3490902000e-02 +1.7688623219e-01 -2.4044316456e-01 3.0995587809e-01 5.1100000000e-04 0.0000e+00 -1.0000e+00
      255  1    4    4    0    0 -1.0065705287e+01 +1.4451539709e+02 -3.3039719755e+02 3.8180273254e+02 1.2500000000e+02 0.0000e+00 0.0000e+00
<mgrwt>
<rscale>  0 0.47359421E+03</rscale>
<asrwt>0</asrwt>
<pdfrwt beam="1">  1        2 0.26612225E+00 0.47359421E+03</pdfrwt>
<pdfrwt beam="2">  1       -2 0.49870633E-02 0.47359421E+03</pdfrwt>
<totfact> 0.20091648E+03</totfact>
</mgrwt>
</event>
<event>
 8      1 +1.6198320e-01 3.29090000e+02 7.81860800e-03 1.07154000e-01
        2 -1    0    0  501    0 +0.0000000000e+00 +0.0000000000e+00 +3.7299254731e+03 3.7299254731e+03 2.5500000000e-03 0.0000e+00 1.0000e+00
       -2 -1    0    0    0  501 -0.0000000000e+00 -0.0000000000e+00 -7.2588720179e+00 7.2588724658e+00 2.5500000000e-03 0.0000e+00 -1.0000e+00
  1000101  2    1    2    0    0 +1.4306867789e+01 -1.0586510928e+02 +1.8205037436e+03 1.8279212286e+03 1.2510007832e+02 1.0526e+02 0.0000e+00
 -1000101  2    1    2    0    0 -1.4306867789e+01 +1.0586510928e+02 +1.9021628574e+03 1.9092631169e+03 1.2509998272e+02 3.6937e+01 0.0000e+00
       11  1    3    3    0    0 -7.7138609704e-02 -1.3766646515e-01 +1.6706328919e+00 1.6780694089e+00 5.1100000000e-04 0.0000e+00 1.0000e+00
      255  1    3    3    0    0 +1.4384006398e+01 -1.0572744282e+02 +1.8188331107e+03 1.8262431592e+03 1.2500000000e+02 0.0000e+00 0.0000e+00
      -11  1    4    4    0    0 +5.7284628474e-03 +1.2798457006e-01 +7.5481841584e-01 7.6561345826e-01 5.1100000000e-04 0.0000e+00 -1.0000e+00
      255  1    4    4    0    0 -1.4312596251e+01 +1.0573712471e+02 +1.9014080390e+03 1.9084975034e+03 1.2500000000e+02 0.0000e+00 0.0000e+00
<mgrwt>
<rscale>  0 0.32908997E+03</rscale>
<asrwt>0</asrwt>
<pdfrwt beam="1">  1        2 0.57383334E+00 0.32908997E+03</pdfrwt>
<pdfrwt beam="2">  1       -2 0.11167522E-02 0.32908997E+03</pdfrwt>
<totfact> 0.12693277E+03</totfact>
</mgrwt>
</event>
<event>
 8      1 +1.6198320e-01 2.98446500e+02 7.81860800e-03 1.08602000e-01
        2 -1    0    0  501    0 +0.0000000000e+00 +0.0000000000e+00 +3.3225069081e+03 3.3225069081e+03 2.5500000000e-03 0.0000e+00 1.0000e+00
       -2 -1    0    0    0  501 -0.0000000000e+00 -0.0000000000e+00 -6.7020402991e+00 6.7020407842e+00 2.5500000000e-03 0.0000e+00 -1.0000e+00
  1000101  2    1    2    0    0 +5.3744862642e+01 -3.9399392967e+01 +1.1374541396e+03 1.1462516120e+03 1.2510002313e+02 8.6164e+01 0.0000e+00
 -1000101  2    1    2    0    0 -5.3744862642e+01 +3.9399392967e+01 +2.1783507282e+03 2.1829573369e+03 1.2510002951e+02 4.5949e+01 0.0000e+00
       11  1    3    3    0    0 +7.5011921673e-02 -1.1375059835e-01 +1.6636147890e+00 1.6691855541e+00 5.1100000000e-04 0.0000e+00 1.0000e+00
      255  1    3    3    0    0 +5.3669850720e+01 -3.9285642369e+01 +1.1357905249e+03 1.1445824264e+03 1.2500000000e+02 0.0000e+00 0.0000e+00
      -11  1    4    4    0    0 -1.3021538694e-02 +1.3889430774e-02 +2.5910709662e-02 3.2157468090e-02 5.1100000000e-04 0.0000e+00 -1.0000e+00
      255  1    4    4    0    0 -5.3731841103e+01 +3.9385503536e+01 +2.1783248175e+03 2.1829251794e+03 1.2500000000e+02 0.0000e+00 0.0000e+00
<mgrwt>
<rscale>  0 0.29844648E+03</rscale>
<asrwt>0</asrwt>
<pdfrwt beam="1">  1        2 0.51115377E+00 0.29844648E+03</pdfrwt>
<pdfrwt beam="2">  1       -2 0.10310855E-02 0.29844648E+03</pdfrwt>
<totfact> 0.26879301E+03</totfact>
</mgrwt>
</event>
<event>
 8      1 +1.6198320e-01 3.63128000e+02 7.81860800e-03 1.05735200e-01
        2 -1    0    0  501    0 +0.0000000000e+00 +0.0000000000e+00 +1.1676692976e+03 1.1676692976e+03 2.5500000000e-03 0.0000e+00 1.0000e+00
       -2 -1    0    0    0  501 -0.0000000000e+00 -0.0000000000e+00 -2.8231872230e+01 2.8231872345e+01 2.5500000000e-03 0.0000e+00 -1.0000e+00
  1000101  2    1    2    0    0 +1.1951326884e+02 +4.5669381556e+01 +4.6841164834e+02 5.0142672711e+02 1.2510066552e+02 1.1287e+02 0.0000e+00
 -1000101  2    1    2    0    0 -1.1951326884e+02 -4.5669381556e+01 +6.7102577701e+02 6.9447444282e+02 1.2510013781e+02 1.6823e+02 0.0000e+00
       11  1    3    3    0    0 +1.5458796890e-01 +1.3289539715e-01 +6.5189538759e-01 6.8302744029e-01 5.1100000000e-04 0.0000e+00 1.0000e+00
      255  1    3    3    0    0 +1.1935868087e+02 +4.5536486158e+01 +4.6775975296e+02 5.0074369967e+02 1.2500000000e+02 0.0000e+00 0.0000e+00
      -11  1    4    4    0    0 +9.8673397567e-03 -4.1528678908e-02 +4.2916869606e-02 6.0531928627e-02 5.1100000000e-04 0.0000e+00 -1.0000e+00
      255  1    4    4    0    0 -1.1952313618e+02 -4.5627852877e+01 +6.7098286014e+02 6.9441391090e+02 1.2500000000e+02 0.0000e+00 0.0000e+00
<mgrwt>
<rscale>  0 0.36312802E+03</rscale>
<asrwt>0</asrwt>
<pdfrwt beam="1">  1        2 0.17964143E+00 0.36312802E+03</pdfrwt>
<pdfrwt beam="2">  1       -2 0.43433650E-02 0.36312802E+03</pdfrwt>
<totfact> 0.50801136E+03</totfact>
</mgrwt>
</event>
<event>
 8      1 +1.6198320e-01 2.68186000e+02 7.81860800e-03 1.10232200e-01
        2 -1    0    0  501    0 +0.0000000000e+00 +0.0000000000e+00 +4.3667115193e+02 4.3667115193e+02 2.5500000000e-03 0.0000e+00 1.0000e+00
       -2 -1    0    0    0  501 -0.0000000000e+00 -0.0000000000e+00 -4.1177279731e+01 4.1177279810e+01 2.5500000000e-03 0.0000e+00 -1.0000e+00
  1000101  2    1    2    0    0 -8.1765532648e+00 +4.4000938691e+01 +2.3001528071e+02 2.6563129405e+02 1.2510002554e+02 8.0748e+01 0.0000e+00
 -1000101  2    1    2    0    0 +8.1765532648e+00 -4.4000938691e+01 +1.6547859148e+02 2.1221713769e+02 1.2510000265e+02 5.9236e+01 0.0000e+00
       11  1    3    3    0    0 -3.8468785577e-02 +4.0709313287e-02 +3.7967167270e-01 3.8378110405e-01 5.1100000000e-04 0.0000e+00 1.0000e+00
      255  1    3    3    0    0 -8.1380844793e+00 +4.3960229378e+01 +2.2963560904e+02 2.6524751295e+02 1.2500000000e+02 0.0000e+00 0.0000e+00
      -11  1    4    4    0    0 -6.8911220364e-02 -2.5581107825e-02 +1.8125724862e-02 7.5709658516e-02 5.1100000000e-04 0.0000e+00 -1.0000e+00
      255  1    4    4    0    0 +8.2454644852e+00 -4.3975357583e+01 +1.6546046576e+02 2.1214142803e+02 1.2500000000e+02 0.0000e+00 0.0000e+00
<mgrwt>
<rscale>  0 0.26818598E+03</rscale>
<asrwt>0</asrwt>
<pdfrwt beam="1">  1        2 0.67180183E-01 0.26818598E+03</pdfrwt>
<pdfrwt beam="2">  1       -2 0.63349655E-02 0.26818598E+03</pdfrwt>
<totfact> 0.97828284E+03</totfact>
</mgrwt>
</event>
<event>
 8      1 +1.6198320e-01 3.02497500e+02 7.81860800e-03 1.08399900e-01
        2 -1    0    0  501    0 +0.0000000000e+00 +0.0000000000e+00 +1.9633009262e+03 1.9633009262e+03 2.5500000000e-03 0.0000e+00 1.0000e+00
       -2 -1    0    0    0  501 -0.0000000000e+00 -0.0000000000e+00 -1.1651896998e+01 1.1651897277e+01 2.5500000000e-03 0.0000e+00 -1.0000e+00
  1000101  2    1    2    0    0 -1.5628038381e+01 -7.5258307715e+01 +7.3879172041e+02 7.5324053817e+02 1.2510017478e+02 9.3784e+00 0.0000e+00
 -1000101  2    1    2    0    0 +1.5628038381e+01 +7.5258307715e+01 +1.2128573088e+03 1.2217122853e+03 1.2509999249e+02 2.8302e+02 0.0000e+00
       11  1    3    3    0    0 -7.0516387426e-02 -2.6771760227e-02 +9.2214097804e-01 9.2522080205e-01 5.1100000000e-04 0.0000e+00 1.0000e+00
      255  1    3    3    0    0 -1.5557521993e+01 -7.5231535955e+01 +7.3786957943e+02 7.5231531737e+02 1.2500000000e+02 0.0000e+00 0.0000e+00
      -11  1    4    4    0    0 -7.0463365428e-02 +3.7758787388e-02 +3.4405587081e-01 3.5322162342e-01 5.1100000000e-04 0.0000e+00 -1.0000e+00
      255  1    4    4    0    0 +1.5698501746e+01 +7.5220548928e+01 +1.2125132529e+03 1.2213590637e+03 1.2500000000e+02 0.0000e+00 0.0000e+00
<mgrwt>
<rscale>  0 0.30249747E+03</rscale>
<asrwt>0</asrwt>
<pdfrwt beam="1">  1        2 0.30204596E+00 0.30249747E+03</pdfrwt>
<pdfrwt beam="2">  1       -2 0.17926016E-02 0.30249747E+03</pdfrwt>
<totfact> 0.70599118E+03</totfact>
</mgrwt>
</event>
<event>
 8      1 +1.6198320e-01 7.00111300e+02 7.81860800e-03 9.71704200e-02
        2 -1    0    0  501    0 +0.0000000000e+00 +0.0000000000e+00 +4.0068198955e+02 4.0068198956e+02 2.5500000000e-03 0.0000e+00 1.0000e+00
       -2 -1    0    0    0  501 -0.0000000000e+00 -0.0000000000e+00 -3.0582600789e+02 3.0582600790e+02 2.5500000000e-03 0.0000e+00 -1.0000e+00
  1000101  2    1    2    0    0 -7.7755087379e+01 -2.9715517624e+02 -6.5585827342e+01 3.3808072183e+02 1.2510004533e+02 5.5660e+01 0.0000e+00
 -1000101  2    1    2    0    0 +7.7755087379e+01 +2.9715517624e+02 +1.6044180901e+02 3.6842727563e+02 1.2510008382e+02 8.4676e+01 0.0000e+00
       11  1    3    3    0    0 +2.8361766004e-02 -2.1682596565e-02 +2.6417913977e-02 4.4414998193e-02 5.1100000000e-04 0.0000e+00 1.0000e+00
      255  1    3    3    0    0 -7.7783449145e+01 -2.9713349364e+02 -6.5612245256e+01 3.3803630683e+02 1.2500000000e+02 0.0000e+00 0.0000e+00
      -11  1    4    4    0    0 +7.5911329527e-02 +4.0396595162e-01 +1.2083161671e-01 4.2842917820e-01 5.1100000000e-04 0.0000e+00 -1.0000e+00
      255  1    4    4    0    0 +7.7679176049e+01 +2.9675121029e+02 +1.6032097739e+02 3.6799884645e+02 1.2500000000e+02 0.0000e+00 0.0000e+00
<mgrwt>
<rscale>  0 0.70011134E+03</rscale>
<asrwt>0</asrwt>
<pdfrwt beam="1">  1        2 0.61643383E-01 0.70011134E+03</pdfrwt>
<pdfrwt beam="2">  1       -2 0.47050155E-01 0.70011134E+03</pdfrwt>
<totfact> 0.34285832E+02</totfact>
</mgrwt>
</event>
<event>
 8      1 +1.6198320e-01 3.43475900e+02 7.81860800e-03 1.06532500e-01
       -2 -1    0    0    0  501 -0.0000000000e+00 +0.0000000000e+00 +1.1801396758e+01 1.1801397034e+01 2.5500000000e-03 0.0000e+00 -1.0000e+00
        2 -1    0    0  501    0 +0.0000000000e+00 -0.0000000000e+00 -2.4991885305e+03 2.4991885305e+03 2.5500000000e-03 0.0000e+00 1.0000e+00
  1000101  2    1    2    0    0 -8.1678188729e+01 +8.0642870222e+01 -1.4328230582e+03 1.4428466775e+03 1.2510003802e+02 3.7530e+01 0.0000e+00
 -1000101  2    1    2    0    0 +8.1678188729e+01 -8.0642870222e+01 -1.0545640755e+03 1.0681432500e+03 1.2510001690e+02 4.4934e+01 0.0000e+00
       11  1    3    3    0    0 -6.0849786146e-02 +1.3537235307e-01 -2.0668912396e+00 2.0722133162e+00 5.1100000000e-04 0.0000e+00 1.0000e+00
      255  1    3    3    0    0 -8.1617338943e+01 +8.0507497869e+01 -1.4307561670e+03 1.4407744642e+03 1.2500000000e+02 0.0000e+00 0.0000e+00
      -11  1    4    4    0    0 +1.3735740318e-01 +4.7237027654e-03 -8.2747969971e-01 8.3881600136e-01 5.1100000000e-04 0.0000e+00 -1.0000e+00
      255  1    4    4    0    0 +8.1540831326e+01 -8.0647593925e+01 -1.0537365958e+03 1.0673044340e+03 1.2500000000e+02 0.0000e+00 0.0000e+00
<mgrwt>
<rscale>  0 0.34347586E+03</rscale>
<asrwt>0</asrwt>
<pdfrwt beam="1">  1        2 0.38449012E+00 0.34347586E+03</pdfrwt>
<pdfrwt beam="2">  1       -2 0.18156015E-02 0.34347586E+03</pdfrwt>
<totfact> 0.35651565E+03</totfact>
</mgrwt>
</event>
<event>
 8      1 +1.6198320e-01 3.11235700e+02 7.81860800e-03 1.07975500e-01
        2 -1    0    0  501    0 +0.0000000000e+00 +0.0000000000e+00 +1.5551273414e+03 1.5551273414e+03 2.5500000000e-03 0.0000e+00 1.0000e+00
       -2 -1    0    0    0  501 -0.0000000000e+00 -0.0000000000e+00 -1.5572305021e+01 1.5572305230e+01 2.5500000000e-03 0.0000e+00 -1.0000e+00
  1000101  2    1    2    0    0 +5.2584952991e+01 -5.9044528957e+01 +5.2693435587e+02 5.4732190257e+02 1.2510002380e+02 1.3462e+02 0.0000e+00
 -1000101  2    1    2    0    0 -5.2584952991e+01 +5.9044528957e+01 +1.0126206805e+03 1.0233777441e+03 1.2509968333e+02 1.8294e+02 0.0000e+00
       11  1    3    3    0    0 +3.0759348587e-02 -1.3281467759e-01 +7.4567082829e-01 7.5803108208e-01 5.1100000000e-04 0.0000e+00 1.0000e+00
      255  1    3    3    0    0 +5.2554193643e+01 -5.8911714279e+01 +5.2618868504e+02 5.4656387149e+02 1.2500000000e+02 0.0000e+00 0.0000e+00
      -11  1    4    4    0    0 -1.4583340743e-02 -2.0359273003e-02 +1.0909956948e+00 1.0912832084e+00 5.1100000000e-04 0.0000e+00 -1.0000e+00
      255  1    4    4    0    0 -5.2570369651e+01 +5.9064888230e+01 +1.0115296848e+03 1.0222864609e+03 1.2500000000e+02 0.0000e+00 0.0000e+00
<mgrwt>
<rscale>  0 0.31123571E+03</rscale>
<asrwt>0</asrwt>
<pdfrwt beam="1">  1        2 0.23925034E+00 0.31123571E+03</pdfrwt>
<pdfrwt beam="2">  1       -2 0.23957395E-02 0.31123571E+03</pdfrwt>
<totfact> 0.75622918E+03</totfact>
</mgrwt>
</event>
<event>
 8      1 +1.6198320e-01 2.63367800e+02 7.81860800e-03 1.10513600e-01
        4 -1    0    0  501    0 +0.0000000000e+00 +0.0000000000e+00 +4.4456282338e+02 4.4456463740e+02 1.2700000000e+00 0.0000e+00 1.0000e+00
       -4 -1    0    0    0  501 -0.0000000000e+00 -0.0000000000e+00 -3.8993854251e+01 3.9014530234e+01 1.2700000000e+00 0.0000e+00 -1.0000e+00
  1000101  2    1    2    0    0 -4.0413848809e+01 -2.0879928072e+00 +1.8941868014e+02 2.3057992466e+02 1.2510006546e+02 9.4899e+01 0.0000e+00
 -1000101  2    1    2    0    0 +4.0413848809e+01 +2.0879928072e+00 +2.1615028898e+02 2.5299924298e+02 1.2510008246e+02 2.1495e+02 0.0000e+00
       11  1    3    3    0    0 -9.6140326795e-02 -2.9781635126e-02 +3.1092634892e-01 3.2681089915e-01 5.1100000000e-04 0.0000e+00 1.0000e+00
      255  1    3    3    0    0 -4.0317708482e+01 -2.0582111721e+00 +1.8910775379e+02 2.3025311376e+02 1.2500000000e+02 0.0000e+00 0.0000e+00
      -11  1    4    4    0    0 -2.2907363550e-02 +1.3153830940e-02 -1.6982885407e-02 3.1407803038e-02 5.1100000000e-04 0.0000e+00 -1.0000e+00
      255  1    4    4    0    0 +4.0436756173e+01 +2.0748389763e+00 +2.1616727187e+02 2.5296783517e+02 1.2500000000e+02 0.0000e+00 0.0000e+00
<mgrwt>
<rscale>  0 0.26336785E+03</rscale>
<asrwt>0</asrwt>
<pdfrwt beam="1">  1        4 0.68396013E-01 0.26336785E+03</pdfrwt>
<pdfrwt beam="2">  1       -4 0.60007843E-02 0.26336785E+03</pdfrwt>
<totfact> 0.66288379E+02</totfact>
</mgrwt>
</event>
<event>
 8      1 +1.6198320e-01 4.56151000e+02 7.81860800e-03 1.02590300e-01
       -3 -1    0    0    0  501 -0.0000000000e+00 +0.0000000000e+00 +3.3838821502e+02 3.3838823010e+02 1.0100000000e-01 0.0000e+00 -1.0000e+00
        3 -1    0    0  501    0 +0.0000000000e+00 -0.0000000000e+00 -1.5372407994e+02 1.5372411312e+02 1.0100000000e-01 0.0000e+00 1.0000e+00
  1000101  2    1    2    0    0 +1.7941237373e+02 +6.4630689642e+01 +9.4014162350e+01 2.4668724828e+02 1.2509999939e+02 0.0000e+00 0.0000e+00
 -1000101  2    1    2    0    0 -1.7941237373e+02 -6.4630689642e+01 +9.0649972732e+01 2.4542509494e+02 1.2510049472e+02 3.0639e+02 0.0000e+00
       11  1    3    3    0    0 +2.8258468142e-01 +1.3655011845e-01 +9.2052813825e-02 3.2706882866e-01 5.1100000000e-04 0.0000e+00 1.0000e+00
      255  1    3    3    0    0 +1.7912978905e+02 +6.4494139523e+01 +9.3922109537e+01 2.4636017945e+02 1.2500000000e+02 0.0000e+00 0.0000e+00
      -11  1    4    4    0    0 -2.0354041412e-01 +3.0761275922e-02 +6.4496595654e-02 2.1571979104e-01 5.1100000000e-04 0.0000e+00 -1.0000e+00
      255  1    4    4    0    0 -1.7920883332e+02 -6.4661450918e+01 +9.0585476137e+01 2.4520937515e+02 1.2500000000e+02 0.0000e+00 0.0000e+00
<mgrwt>
<rscale>  0 0.45615098E+03</rscale>
<asrwt>0</asrwt>
<pdfrwt beam="1">  1        3 0.23649862E-01 0.45615098E+03</pdfrwt>
<pdfrwt beam="2">  1       -3 0.52059729E-01 0.45615098E+03</pdfrwt>
<totfact> 0.15984788E+02</totfact>
</mgrwt>
</event>
<event>
 8      1 +1.6198320e-01 2.74620800e+02 7.81860800e-03 1.09866400e-01
        2 -1    0    0  501    0 +0.0000000000e+00 +0.0000000000e+00 +5.8615234460e+02 5.8615234460e+02 2.5500000000e-03 0.0000e+00 1.0000e+00
       -2 -1    0    0    0  501 -0.0000000000e+00 -0.0000000000e+00 -3.2165938374e+01 3.2165938476e+01 2.5500000000e-03 0.0000e+00 -1.0000e+00
  1000101  2    1    2    0    0 -1.1259852989e+01 +4.7931693948e+01 +2.1411498509e+02 2.5282300328e+02 1.2510001029e+02 1.1123e+02 0.0000e+00
 -1000101  2    1    2    0    0 +1.1259852989e+01 -4.7931693948e+01 +3.3987142113e+02 3.6549527979e+02 1.2509990038e+02 8.6547e+01 0.0000e+00
       11  1    3    3    0    0 +7.1510481045e-02 -2.6422370086e-02 +1.5099179277e-01 1.6914689813e-01 5.1100000000e-04 0.0000e+00 1.0000e+00
      255  1    3    3    0    0 -1.1331363470e+01 +4.7958116318e+01 +2.1396399330e+02 2.5265385638e+02 1.2500000000e+02 0.0000e+00 0.0000e+00
      -11  1    4    4    0    0 +3.2558211829e-03 +1.8992101008e-02 +4.4752101669e-01 4.4793595722e-01 5.1100000000e-04 0.0000e+00 -1.0000e+00
      255  1    4    4    0    0 +1.1256597168e+01 -4.7950686049e+01 +3.3942390012e+02 3.6504734384e+02 1.2500000000e+02 0.0000e+00 0.0000e+00
<mgrwt>
<rscale>  0 0.27462076E+03</rscale>
<asrwt>0</asrwt>
<pdfrwt beam="1">  1        2 0.90177275E-01 0.27462076E+03</pdfrwt>
<pdfrwt beam="2">  1       -2 0.49486064E-02 0.27462076E+03</pdfrwt>
<totfact> 0.10263814E+04</totfact>
</mgrwt>
</event>
<event>
 8      1 +1.6198320e-01 2.76445200e+02 7.81860800e-03 1.09764600e-01
       -2 -1    0    0    0  501 -0.0000000000e+00 +0.0000000000e+00 +2.4894563001e+03 2.4894563001e+03 2.5500000000e-03 0.0000e+00 -1.0000e+00
        2 -1    0    0  501    0 +0.0000000000e+00 -0.0000000000e+00 -7.6745646523e+00 7.6745650760e+00 2.5500000000e-03 0.0000e+00 1.0000e+00
  1000101  2    1    2    0    0 +3.9219987863e+01 -1.8789216728e+01 +1.5981509724e+03 1.6036295626e+03 1.2509996522e+02 1.8806e+02 0.0000e+00
 -1000101  2    1    2    0    0 -3.9219987863e+01 +1.8789216728e+01 +8.8363076306e+02 8.9350130261e+02 1.2510000087e+02 8.5300e+01 0.0000e+00
       11  1    3    3    0    0 -6.4966874605e-02 -4.9299044642e-02 +8.7272389983e-01 8.7652630141e-01 5.1100000000e-04 0.0000e+00 1.0000e+00
      255  1    3    3    0    0 +3.9284954738e+01 -1.8739917683e+01 +1.5972782485e+03 1.6027530363e+03 1.2500000000e+02 0.0000e+00 0.0000e+00
      -11  1    4    4    0    0 -1.2560489689e-02 +1.1231919216e-01 +8.6532735042e-01 8.7267694557e-01 5.1100000000e-04 0.0000e+00 -1.0000e+00
      255  1    4    4    0    0 -3.9207427373e+01 +1.8676897536e+01 +8.8276543571e+02 8.9262862566e+02 1.2500000000e+02 0.0000e+00 0.0000e+00
<mgrwt>
<rscale>  0 0.27644525E+03</rscale>
<asrwt>0</asrwt>
<pdfrwt beam="1">  1        2 0.11807033E-02 0.27644525E+03</pdfrwt>
<pdfrwt beam="2">  1       -2 0.38299295E+00 0.27644525E+03</pdfrwt>
<totfact> 0.13204337E+02</totfact>
</mgrwt>
</event>
<event>
 8      1 +1.6198320e-01 3.40883600e+02 7.81860800e-03 1.06642000e-01
        2 -1    0    0  501    0 +0.0000000000e+00 +0.0000000000e+00 +2.5246836669e+02 2.5246836671e+02 2.5500000000e-03 0.0000e+00 1.0000e+00
       -2 -1    0    0    0  501 -0.0000000000e+00 -0.0000000000e+00 -1.1506554169e+02 1.1506554172e+02 2.5500000000e-03 0.0000e+00 -1.0000e+00
  1000101  2    1    2    0    0 +2.4727141147e+01 +4.0999610269e+01 -4.4932846141e+01 1.4128470317e+02 1.2509998855e+02 2.5073e+02 0.0000e+00
 -1000101  2    1    2    0    0 -2.4727141147e+01 -4.0999610269e+01 +1.8233567115e+02 2.2624920525e+02 1.2509998543e+02 1.6398e+01 0.0000e+00
       11  1    3    3    0    0 -5.4636997071e-02 +4.8033325589e-02 +3.6335303061e-02 8.1319844971e-02 5.1100000000e-04 0.0000e+00 1.0000e+00
      255  1    3    3    0    0 +2.4781778145e+01 +4.0951576944e+01 -4.4969181444e+01 1.4120338332e+02 1.2500000000e+02 0.0000e+00 0.0000e+00
      -11  1    4    4    0    0 +3.4994708222e-02 +1.4991512726e-02 -1.1207505968e-02 3.9689348308e-02 5.1100000000e-04 0.0000e+00 -1.0000e+00
      255  1    4    4    0    0 -2.4762135856e+01 -4.1014601782e+01 +1.8234687865e+02 2.2620951591e+02 1.2500000000e+02 0.0000e+00 0.0000e+00
<mgrwt>
<rscale>  0 0.34088361E+03</rscale>
<asrwt>0</asrwt>
<pdfrwt beam="1">  1        2 0.38841287E-01 0.34088361E+03</pdfrwt>
<pdfrwt beam="2">  1       -2 0.17702391E-01 0.34088361E+03</pdfrwt>
<totfact> 0.34279249E+03</totfact>
</mgrwt>
</event>
<event>
 8      1 +1.6198320e-01 3.01004100e+02 7.81860800e-03 1.08474000e-01
        2 -1    0    0  501    0 +0.0000000000e+00 +0.0000000000e+00 +4.4599040280e+02 4.4599040281e+02 2.5500000000e-03 0.0000e+00 1.0000e+00
       -2 -1    0    0    0  501 -0.0000000000e+00 -0.0000000000e+00 -5.0787778404e+01 5.0787778468e+01 2.5500000000e-03 0.0000e+00 -1.0000e+00
  1000101  2    1    2    0    0 +2.2474834982e+01 -2.1088544553e+01 +6.9218004742e+01 1.4625591934e+02 1.2509922798e+02 1.4452e+02 0.0000e+00
 -1000101  2    1    2    0    0 -2.2474834982e+01 +2.1088544553e+01 +3.2598461966e+02 3.5052226194e+02 1.2510011569e+02 9.6203e+00 0.0000e+00
       11  1    3    3    0    0 -6.4120089957e-02 -7.2356277148e-02 +4.3633511745e-02 1.0607054845e-01 5.1100000000e-04 0.0000e+00 1.0000e+00
      255  1    3    3    0    0 +2.2538955072e+01 -2.1016188276e+01 +6.9174371230e+01 1.4614984879e+02 1.2500000000e+02 0.0000e+00 0.0000e+00
      -11  1    4    4    0    0 -6.6431255392e-03 -6.6474617627e-02 +6.7742883773e-02 9.5143919033e-02 5.1100000000e-04 0.0000e+00 -1.0000e+00
      255  1    4    4    0    0 -2.2468191856e+01 +2.1155019170e+01 +3.2591687677e+02 3.5042711802e+02 1.2500000000e+02 0.0000e+00 0.0000e+00
<mgrwt>
<rscale>  0 0.30100406E+03</rscale>
<asrwt>0</asrwt>
<pdfrwt beam="1">  1        2 0.68613909E-01 0.30100406E+03</pdfrwt>
<pdfrwt beam="2">  1       -2 0.78135043E-02 0.30100406E+03</pdfrwt>
<totfact> 0.69323892E+03</totfact>
</mgrwt>
</event>
<event>
 8      1 +1.6198320e-01 2.64491600e+02 7.81860800e-03 1.10447400e-01
        1 -1    0    0  501    0 +0.0000000000e+00 +0.0000000000e+00 +1.1960283271e+02 1.1960283282e+02 5.0400000000e-03 0.0000e+00 -1.0000e+00
       -1 -1    0    0    0  501 -0.0000000000e+00 -0.0000000000e+00 -1.4622523857e+02 1.4622523866e+02 5.0400000000e-03 0.0000e+00 1.0000e+00
  1000101  2    1    2    0    0 -1.6891177203e+01 -9.0377614057e+00 -5.1871034268e+01 1.3677575814e+02 1.2510000328e+02 0.0000e+00 0.0000e+00
 -1000101  2    1    2    0    0 +1.6891177203e+01 +9.0377614057e+00 +2.5248628409e+01 1.2905231334e+02 1.2510001336e+02 6.7839e+01 0.0000e+00
       11  1    3    3    0    0 -4.1993353553e-03 -1.0627087668e-01 -5.6125267353e-02 1.2025572920e-01 5.1100000000e-04 0.0000e+00 1.0000e+00
      255  1    3    3    0    0 -1.6886977867e+01 -8.9314905290e+00 -5.1814909001e+01 1.3665550241e+02 1.2500000000e+02 0.0000e+00 0.0000e+00
      -11  1    4    4    0    0 -1.9496005488e-02 +1.0159754120e-01 +1.8460034162e-02 1.0508657664e-01 5.1100000000e-04 0.0000e+00 -1.0000e+00
      255  1    4    4    0    0 +1.6910673208e+01 +8.9361638645e+00 +2.5230168375e+01 1.2894722676e+02 1.2500000000e+02 0.0000e+00 0.0000e+00
<mgrwt>
<rscale>  0 0.26449161E+03</rscale>
<asrwt>0</asrwt>
<pdfrwt beam="1">  1        1 0.18400436E-01 0.26449161E+03</pdfrwt>
<pdfrwt beam="2">  1       -1 0.22496191E-01 0.26449161E+03</pdfrwt>
<totfact> 0.46880576E+03</totfact>
</mgrwt>
</event>
<event>
 8      1 +1.6198320e-01 2.74658500e+02 7.81860800e-03 1.09864300e-01
       -2 -1    0    0    0  501 -0.0000000000e+00 +0.0000000000e+00 +3.4558635833e+01 3.4558635927e+01 2.5500000000e-03 0.0000e+00 -1.0000e+00
        2 -1    0    0  501    0 +0.0000000000e+00 -0.0000000000e+00 -5.4571956269e+02 5.4571956269e+02 2.5500000000e-03 0.0000e+00 1.0000e+00
  1000101  2    1    2    0    0 -4.7595585706e+01 +1.8735336658e+01 -2.0413479490e+02 2.4482112321e+02 1.2510002102e+02 1.3993e+02 0.0000e+00
 -1000101  2    1    2    0    0 +4.7595585706e+01 -1.8735336658e+01 -3.0702613195e+02 3.3545707541e+02 1.2510016437e+02 8.0396e+01 0.0000e+00
       11  1    3    3    0    0 -4.8609213241e-02 +1.0805541094e-01 -2.5832968442e-01 2.8420646442e-01 5.1100000000e-04 0.0000e+00 1.0000e+00
      255  1    3    3    0    0 -4.7546976493e+01 +1.8627281247e+01 -2.0387646522e+02 2.4453691674e+02 1.2500000000e+02 0.0000e+00 0.0000e+00
      -11  1    4    4    0    0 +8.2353829256e-02 +1.1523993385e-02 -4.8779890041e-01 4.9483632040e-01 5.1100000000e-04 0.0000e+00 -1.0000e+00
      255  1    4    4    0    0 +4.7513231876e+01 -1.8746860651e+01 -3.0653833305e+02 3.3496223909e+02 1.2500000000e+02 0.0000e+00 0.0000e+00
<mgrwt>
<rscale>  0 0.27465851E+03</rscale>
<asrwt>0</asrwt>
<pdfrwt beam="1">  1        2 0.83956849E-01 0.27465851E+03</pdfrwt>
<pdfrwt beam="2">  1       -2 0.53167136E-02 0.27465851E+03</pdfrwt>
<totfact> 0.99875344E+03</totfact>
</mgrwt>
</event>
<event>
 8      1 +1.6198320e-01 4.37929600e+02 7.81860800e-03 1.03138400e-01
        2 -1    0    0  501    0 +0.0000000000e+00 +0.0000000000e+00 +1.3311906751e+03 1.3311906751e+03 2.5500000000e-03 0.0000e+00 1.0000e+00
       -2 -1    0    0    0  501 -0.0000000000e+00 -0.0000000000e+00 -3.6017064703e+01 3.6017064793e+01 2.5500000000e-03 0.0000e+00 -1.0000e+00
  1000101  2    1    2    0    0 +8.5319071114e+00 +1.7013231157e+02 +8.2632158055e+02 8.5292156440e+02 1.2510013450e+02 2.7986e+00 0.0000e+00
 -1000101  2    1    2    0    0 -8.5319071114e+00 -1.7013231157e+02 +4.6885202986e+02 5.1428617551e+02 1.2510094940e+02 1.8270e+02 0.0000e+00
       11  1    3    3    0    0 -3.4381143613e-02 +2.8303090742e-01 +1.0433191216e+00 1.0815745967e+00 5.1100000000e-04 0.0000e+00 1.0000e+00
      255  1    3    3    0    0 +8.5662882550e+00 +1.6984928066e+02 +8.2527826143e+02 8.5183998980e+02 1.2500000000e+02 0.0000e+00 0.0000e+00
      -11  1    4    4    0    0 +1.4914364741e-02 -1.0728058715e-01 +5.5910402973e-01 5.6949902532e-01 5.1100000000e-04 0.0000e+00 -1.0000e+00
      255  1    4    4    0    0 -8.5468214761e+00 -1.7002503098e+02 +4.6829292583e+02 5.1371667649e+02 1.2500000000e+02 0.0000e+00 0.0000e+00
<mgrwt>
<rscale>  0 0.43792959E+03</rscale>
<asrwt>0</asrwt>
<pdfrwt beam="1">  1        2 0.20479856E+00 0.43792959E+03</pdfrwt>
<pdfrwt beam="2">  1       -2 0.55410870E-02 0.43792959E+03</pdfrwt>
<totfact> 0.28216293E+03</totfact>
</mgrwt>
</event>
<event>
 8      1 +1.6198320e-01 2.62418300e+02 7.81860800e-03 1.10569900e-01
        4 -1    0    0  501    0 +0.0000000000e+00 +0.0000000000e+00 +8.1959473085e+00 8.2937598400e+00 1.2700000000e+00 0.0000e+00 1.0000e+00
       -4 -1    0    0    0  501 -0.0000000000e+00 -0.0000000000e+00 -2.0879730769e+03 2.0879734631e+03 1.2700000000e+00 0.0000e+00 -1.0000e+00
  1000101  2    1    2    0    0 -3.2554306201e+01 +6.0962775836e+00 -1.2128607746e+03 1.2197451536e+03 1.2510009410e+02 1.5148e+02 0.0000e+00
 -1000101  2    1    2    0    0 +3.2554306201e+01 -6.0962775836e+00 -8.6691635496e+02 8.7652206941e+02 1.2510005683e+02 1.0541e+02 0.0000e+00
       11  1    3    3    0    0 +2.3938605514e-02 -4.9852827356e-02 -1.7862843729e-01 1.8699395969e-01 5.1100000000e-04 0.0000e+00 1.0000e+00
      255  1    3    3    0    0 -3.2578244806e+01 +6.1461304110e+00 -1.2126821462e+03 1.2195581596e+03 1.2500000000e+02 0.0000e+00 0.0000e+00
      -11  1    4    4    0    0 -4.4994388245e-03 +8.8356216350e-02 -7.6743786390e-01 7.7252068062e-01 5.1100000000e-04 0.0000e+00 -1.0000e+00
      255  1    4    4    0    0 +3.2558805640e+01 -6.1846338000e+00 -8.6614891710e+02 8.7574954873e+02 1.2500000000e+02 0.0000e+00 0.0000e+00
<mgrwt>
<rscale>  0 0.26241829E+03</rscale>
<asrwt>0</asrwt>
<pdfrwt beam="1">  1        4 0.12684704E-02 0.26241829E+03</pdfrwt>
<pdfrwt beam="2">  1       -4 0.32123376E+00 0.26241829E+03</pdfrwt>
<totfact> 0.10338095E+02</totfact>
</mgrwt>
</event>
<event>
 8      1 +1.6198320e-01 2.87099700e+02 7.81860800e-03 1.09187300e-01
        2 -1    0    0  501    0 +0.0000000000e+00 +0.0000000000e+00 +9.9518955055e+01 9.9518955087e+01 2.5500000000e-03 0.0000e+00 1.0000e+00
       -2 -1    0    0    0  501 -0.0000000000e+00 -0.0000000000e+00 -2.0706159677e+02 2.0706159679e+02 2.5500000000e-03 0.0000e+00 -1.0000e+00
  1000101  2    1    2    0    0 -6.4790961908e+01 -8.2032217774e+00 -2.5693245871e+01 1.4344103289e+02 1.2510006171e+02 8.5260e+01 0.0000e+00
 -1000101  2    1    2    0    0 +6.4790961908e+01 +8.2032217774e+00 -8.1849395847e+01 1.6313951899e+02 1.2510002983e+02 3.5191e+02 0.0000e+00
       11  1    3    3    0    0 +3.3723539453e-02 +6.0889613016e-02 -1.0359982752e-02 7.0373378851e-02 5.1100000000e-04 0.0000e+00 1.0000e+00
      255  1    3    3    0    0 -6.4824685448e+01 -8.2641113904e+00 -2.5682885888e+01 1.4337065951e+02 1.2500000000e+02 0.0000e+00 0.0000e+00
      -11  1    4    4    0    0 +1.5769922924e-01 +4.1490709412e-02 -1.0777047527e-01 1.9546166460e-01 5.1100000000e-04 0.0000e+00 -1.0000e+00
      255  1    4    4    0    0 +6.4633262679e+01 +8.1617310680e+00 -8.1741625372e+01 1.6294405732e+02 1.2500000000e+02 0.0000e+00 0.0000e+00
<mgrwt>
<rscale>  0 0.28709966E+03</rscale>
<asrwt>0</asrwt>
<pdfrwt beam="1">  1        2 0.15310609E-01 0.28709966E+03</pdfrwt>
<pdfrwt beam="2">  1       -2 0.31855630E-01 0.28709966E+03</pdfrwt>
<totfact> 0.34712513E+03</totfact>
</mgrwt>
</event>
<event>
 8      1 +1.6198320e-01 2.78511800e+02 7.81860800e-03 1.09650500e-01
        2 -1    0    0  501    0 +0.0000000000e+00 +0.0000000000e+00 +1.8818984470e+02 1.8818984471e+02 2.5500000000e-03 0.0000e+00 1.0000e+00
       -2 -1    0    0    0  501 -0.0000000000e+00 -0.0000000000e+00 -1.0304595072e+02 1.0304595075e+02 2.5500000000e-03 0.0000e+00 -1.0000e+00
  1000101  2    1    2    0    0 +2.3112981453e+01 +4.8085935242e+01 +7.3867933996e+01 1.5476741365e+02 1.2510001429e+02 1.6470e+02 0.0000e+00
 -1000101  2    1    2    0    0 -2.3112981453e+01 -4.8085935242e+01 +1.1275959982e+01 1.3646838181e+02 1.2509997954e+02 4.2799e+01 0.0000e+00
       11  1    3    3    0    0 +9.9005909991e-02 -1.8211667591e-02 +7.6597680886e-02 1.2649624851e-01 5.1100000000e-04 0.0000e+00 1.0000e+00
      255  1    3    3    0    0 +2.3013975543e+01 +4.8104146910e+01 +7.3791336315e+01 1.5464091740e+02 1.2500000000e+02 0.0000e+00 0.0000e+00
      -11  1    4    4    0    0 -4.2041739176e-02 -8.2277501555e-02 -7.8496871318e-02 1.2123990689e-01 5.1100000000e-04 0.0000e+00 -1.0000e+00
      255  1    4    4    0    0 -2.3070939713e+01 -4.8003657741e+01 +1.1354456853e+01 1.3634714191e+02 1.2500000000e+02 0.0000e+00 0.0000e+00
<mgrwt>
<rscale>  0 0.27851177E+03</rscale>
<asrwt>0</asrwt>
<pdfrwt beam="1">  1        2 0.28952283E-01 0.27851177E+03</pdfrwt>
<pdfrwt beam="2">  1       -2 0.15853223E-01 0.27851177E+03</pdfrwt>
<totfact> 0.56560410E+03</totfact>
</mgrwt>
</event>
<event>
 8      1 +1.6198320e-01 2.71520400e+02 7.81860800e-03 1.10041300e-01
       -4 -1    0    0    0  501 -0.0000000000e+00 +0.0000000000e+00 +6.5353589118e+02 6.5353712515e+02 1.2700000000e+00 0.0000e+00 -1.0000e+00
        4 -1    0    0  501    0 +0.0000000000e+00 -0.0000000000e+00 -2.8186160844e+01 2.8214757896e+01 1.2700000000e+00 0.0000e+00 1.0000e+00
  1000101  2    1    2    0    0 -2.2906560033e+01 +4.4905368844e+01 +2.7380585067e+02 3.0522256950e+02 1.2509984183e+02 1.3660e+00 0.0000e+00
 -1000101  2    1    2    0    0 +2.2906560033e+01 -4.4905368844e+01 +3.5154387966e+02 3.7652931355e+02 1.2510004793e+02 1.3588e+02 0.0000e+00
       11  1    3    3    0    0 -1.2971786275e-02 +6.5768483710e-02 +2.0760508131e-02 7.0178490352e-02 5.1100000000e-04 0.0000e+00 1.0000e+00
      255  1    3    3    0    0 -2.2893588247e+01 +4.4839600360e+01 +2.7378509016e+02 3.0515239101e+02 1.2500000000e+02 0.0000e+00 0.0000e+00
      -11  1    4    4    0    0 +7.5533850007e-03 +6.9263854469e-02 +1.4717740638e-01 1.6283729681e-01 5.1100000000e-04 0.0000e+00 -1.0000e+00
      255  1    4    4    0    0 +2.2899006648e+01 -4.4974632698e+01 +3.5139670225e+02 3.7636647625e+02 1.2500000000e+02 0.0000e+00 0.0000e+00
<mgrwt>
<rscale>  0 0.27152043E+03</rscale>
<asrwt>0</asrwt>
<pdfrwt beam="1">  1        4 0.43386270E-02 0.27152043E+03</pdfrwt>
<pdfrwt beam="2">  1       -4 0.10054628E+00 0.27152043E+03</pdfrwt>
<totfact> 0.47319942E+02</totfact>
</mgrwt>
</event>
<event>
 8      1 +1.6198320e-01 4.02096500e+02 7.81860800e-03 1.04305600e-01
       -2 -1    0    0    0  501 -0.0000000000e+00 +0.0000000000e+00 +4.7572510942e+01 4.7572511010e+01 2.5500000000e-03 0.0000e+00 -1.0000e+00
        2 -1    0    0  501    0 +0.0000000000e+00 -0.0000000000e+00 -8.4965877557e+02 8.4965877557e+02 2.5500000000e-03 0.0000e+00 1.0000e+00
  1000101  2    1    2    0    0 -7.4208948995e+01 -9.9473049588e+01 -1.8506464881e+02 2.5554013044e+02 1.2509987339e+02 4.3692e+01 0.0000e+00
 -1000101  2    1    2    0    0 +7.4208948995e+01 +9.9473049588e+01 -6.1702161582e+02 6.4169115614e+02 1.2509999912e+02 3.3498e+02 0.0000e+00
       11  1    3    3    0    0 -1.5233525586e-01 -1.7622691487e-01 -2.8549285095e-01 3.6846761699e-01 5.1100000000e-04 0.0000e+00 1.0000e+00
      255  1    3    3    0    0 -7.4056613739e+01 -9.9296822673e+01 -1.8477915596e+02 2.5517166282e+02 1.2500000000e+02 0.0000e+00 0.0000e+00
      -11  1    4    4    0    0 +7.9243352220e-02 -2.9813460441e-02 -3.8689574080e-01 3.9605167171e-01 5.1100000000e-04 0.0000e+00 -1.0000e+00
      255  1    4    4    0    0 +7.4129705642e+01 +9.9502863049e+01 -6.1663472008e+02 6.4129510447e+02 1.2500000000e+02 0.0000e+00 0.0000e+00
<mgrwt>
<rscale>  0 0.40209651E+03</rscale>
<asrwt>0</asrwt>
<pdfrwt beam="1">  1        2 0.13071672E+00 0.40209651E+03</pdfrwt>
<pdfrwt beam="2">  1       -2 0.73188485E-02 0.40209651E+03</pdfrwt>
<totfact> 0.35834291E+03</totfact>
</mgrwt>
</event>
<event>
 8      1 +1.6198320e-01 3.12456500e+02 7.81860800e-03 1.07917400e-01
       -1 -1    0    0    0  501 -0.0000000000e+00 +0.0000000000e+00 +5.1188257788e+02 5.1188257791e+02 5.0400000000e-03 0.0000e+00 -1.0000e+00
        1 -1    0    0  501    0 +0.0000000000e+00 -0.0000000000e+00 -4.7681376656e+01 4.7681376923e+01 5.0400000000e-03 0.0000e+00 1.0000e+00
  1000101  2    1    2    0    0 +2.3550852731e+01 -9.0562670408e+01 +2.3035482992e+02 2.7833367226e+02 1.2510014192e+02 1.4538e+02 0.0000e+00
 -1000101  2    1    2    0    0 -2.3550852731e+01 +9.0562670408e+01 +2.3384637131e+02 2.8123028258e+02 1.2510038580e+02 8.2492e+01 0.0000e+00
       11  1    3    3    0    0 +6.5774717939e-03 +2.7269962528e-02 -8.7894101386e-03 2.9401170780e-02 5.1100000000e-04 0.0000e+00 1.0000e+00
      255  1    3    3    0    0 +2.3544275259e+01 -9.0589940371e+01 +2.3036361933e+02 2.7830427108e+02 1.2500000000e+02 0.0000e+00 0.0000e+00
      -11  1    4    4    0    0 +5.8236541707e-02 +4.5728161722e-02 +2.6260647696e-01 2.7284607827e-01 5.1100000000e-04 0.0000e+00 -1.0000e+00
      255  1    4    4    0    0 -2.3609089272e+01 +9.0516942247e+01 +2.3358376483e+02 2.8095743650e+02 1.2500000000e+02 0.0000e+00 0.0000e+00
<mgrwt>
<rscale>  0 0.31245650E+03</rscale>
<asrwt>0</asrwt>
<pdfrwt beam="1">  1        1 0.73355964E-02 0.31245650E+03</pdfrwt>
<pdfrwt beam="2">  1       -1 0.78751166E-01 0.31245650E+03</pdfrwt>
<totfact> 0.16534040E+03</totfact>
</mgrwt>
</event>
<event>
 8      1 +1.6198320e-01 3.02790500e+02 7.81860800e-03 1.08385400e-01
        1 -1    0    0  501    0 +0.0000000000e+00 +0.0000000000e+00 +1.9123414201e+02 1.9123414207e+02 5.0400000000e-03 0.0000e+00 1.0000e+00
       -1 -1    0    0    0  501 -0.0000000000e+00 -0.0000000000e+00 -1.1985580526e+02 1.1985580536e+02 5.0400000000e-03 0.0000e+00 -1.0000e+00
  1000101  2    1    2    0    0 +2.1196569726e+01 -4.5326578394e+01 +1.0662286176e+02 1.7182037644e+02 1.2510001532e+02 1.4646e+01 0.0000e+00
 -1000101  2    1    2    0    0 -2.1196569726e+01 +4.5326578394e+01 -3.5244525010e+01 1.3926957100e+02 1.2510013424e+02 4.4213e+01 0.0000e+00
       11  1    3    3    0    0 +7.2843245902e-03 -1.3397433629e-01 +6.3521118088e-02 1.4844991658e-01 5.1100000000e-04 0.0000e+00 1.0000e+00
      255  1    3    3    0    0 +2.1189285401e+01 -4.5192604058e+01 +1.0655934064e+02 1.7167192652e+02 1.2500000000e+02 0.0000e+00 0.0000e+00
      -11  1    4    4    0    0 -3.8033358170e-02 -5.2397828825e-02 -7.2071514528e-02 9.6884638239e-02 5.1100000000e-04 0.0000e+00 -1.0000e+00
      255  1    4    4    0    0 -2.1158536368e+01 +4.5378976223e+01 -3.5172453496e+01 1.3917268636e+02 1.2500000000e+02 0.0000e+00 0.0000e+00
<mgrwt>
<rscale>  0 0.30279050E+03</rscale>
<asrwt>0</asrwt>
<pdfrwt beam="1">  1        1 0.29420637E-01 0.30279050E+03</pdfrwt>
<pdfrwt beam="2">  1       -1 0.18439355E-01 0.30279050E+03</pdfrwt>
<totfact> 0.35700781E+03</totfact>
</mgrwt>
</event>
<event>
 8      1 +1.6198320e-01 5.07755500e+02 7.81860800e-03 1.01177400e-01
        2 -1    0    0  501    0 +0.0000000000e+00 +0.0000000000e+00 +1.8286227344e+02 1.8286227346e+02 2.5500000000e-03 0.0000e+00 1.0000e+00
       -2 -1    0    0    0  501 -0.0000000000e+00 -0.0000000000e+00 -3.5247244664e+02 3.5247244665e+02 2.5500000000e-03 0.0000e+00 -1.0000e+00
  1000101  2    1    2    0    0 +1.7516145967e+02 -4.1822260695e+01 +5.0103161419e+01 2.2492435500e+02 1.2509996101e+02 9.2177e+01 0.0000e+00
 -1000101  2    1    2    0    0 -1.7516145967e+02 +4.1822260695e+01 -2.1971333462e+02 3.1041036511e+02 1.2509998767e+02 1.6810e+02 0.0000e+00
       11  1    3    3    0    0 +5.4051283363e-02 -3.6839424547e-02 +1.1162965544e-01 1.2938363702e-01 5.1100000000e-04 0.0000e+00 1.0000e+00
      255  1    3    3    0    0 +1.7510740838e+02 -4.1785421270e+01 +4.9991531763e+01 2.2479497136e+02 1.2500000000e+02 0.0000e+00 0.0000e+00
      -11  1    4    4    0    0 -2.0891636204e-01 +1.3185901862e-01 -2.0484074084e-01 3.2092497153e-01 5.1100000000e-04 0.0000e+00 -1.0000e+00
      255  1    4    4    0    0 -1.7495254330e+02 +4.1690401676e+01 -2.1950849388e+02 3.1008944014e+02 1.2500000000e+02 0.0000e+00 0.0000e+00
<mgrwt>
<rscale>  0 0.50775550E+03</rscale>
<asrwt>0</asrwt>
<pdfrwt beam="1">  1        2 0.28132657E-01 0.50775550E+03</pdfrwt>
<pdfrwt beam="2">  1       -2 0.54226530E-01 0.50775550E+03</pdfrwt>
<totfact> 0.61711158E+02</totfact>
</mgrwt>
</event>
<event>
 8      1 +1.6198320e-01 4.41752800e+02 7.81860800e-03 1.03021000e-01
       -2 -1    0    0    0  501 -0.0000000000e+00 +0.0000000000e+00 +2.7978679868e+01 2.7978679984e+01 2.5500000000e-03 0.0000e+00 -1.0000e+00
        2 -1    0    0  501    0 +0.0000000000e+00 -0.0000000000e+00 -1.7436983202e+03 1.7436983202e+03 2.5500000000e-03 0.0000e+00 1.0000e+00
  1000101  2    1    2    0    0 +1.1874941737e+02 -2.6069308804e+00 -1.4110871932e+03 1.4215925224e+03 1.2510001169e+02 8.2441e+01 0.0000e+00
 -1000101  2    1    2    0    0 -1.1874941737e+02 +2.6069308804e+00 -3.0463244713e+02 3.5008447771e+02 1.2509993395e+02 1.4930e+01 0.0000e+00
       11  1    3    3    0    0 +4.8628628393e-02 +5.2443557670e-02 -1.4959244075e+00 1.4976331876e+00 5.1100000000e-04 0.0000e+00 1.0000e+00
      255  1    3    3    0    0 +1.1870078874e+02 -2.6593744381e+00 -1.4095912687e+03 1.4200948892e+03 1.2500000000e+02 0.0000e+00 0.0000e+00
      -11  1    4    4    0    0 -1.9537648145e-01 -5.8210845432e-02 -4.2470565965e-01 4.7110044629e-01 5.1100000000e-04 0.0000e+00 -1.0000e+00
      255  1    4    4    0    0 -1.1855404089e+02 +2.6651417258e+00 -3.0420774147e+02 3.4961337726e+02 1.2500000000e+02 0.0000e+00 0.0000e+00
<mgrwt>
<rscale>  0 0.44175277E+03</rscale>
<asrwt>0</asrwt>
<pdfrwt beam="1">  1        2 0.26826120E+00 0.44175277E+03</pdfrwt>
<pdfrwt beam="2">  1       -2 0.43044137E-02 0.44175277E+03</pdfrwt>
<totfact> 0.24790676E+03</totfact>
</mgrwt>
</event>
<event>
 8      1 +1.6198320e-01 3.04719600e+02 7.81860800e-03 1.08290500e-01
       -2 -1    0    0    0  501 -0.0000000000e+00 +0.0000000000e+00 +2.4358077134e+01 2.4358077268e+01 2.5500000000e-03 0.0000e+00 -1.0000e+00
        2 -1    0    0  501    0 +0.0000000000e+00 -0.0000000000e+00 -9.5301097769e+02 9.5301097770e+02 2.5500000000e-03 0.0000e+00 1.0000e+00
  1000101  2    1    2    0    0 +4.9354351658e+00 +3.2905790006e+01 -7.2204879210e+02 7.3356089410e+02 1.2509987071e+02 3.2798e+02 0.0000e+00
 -1000101  2    1    2    0    0 -4.9354351658e+00 -3.2905790006e+01 -2.0660410846e+02 2.4380816086e+02 1.2510000853e+02 3.8318e+01 0.0000e+00
       11  1    3    3    0    0 +2.9328258636e-02 +6.0479378274e-02 -1.1446361715e+00 1.1466080971e+00 5.1100000000e-04 0.0000e+00 1.0000e+00
      255  1    3    3    0    0 +4.9061069071e+00 +3.2845310628e+01 -7.2090415592e+02 7.3241428601e+02 1.2500000000e+02 0.0000e+00 0.0000e+00
      -11  1    4    4    0    0 -8.9152081027e-02 -4.4011709538e-02 -8.3692253177e-02 1.2996068056e-01 5.1100000000e-04 0.0000e+00 -1.0000e+00
      255  1    4    4    0    0 -4.8462830847e+00 -3.2861778297e+01 -2.0652041621e+02 2.4367820018e+02 1.2500000000e+02 0.0000e+00 0.0000e+00
<mgrwt>
<rscale>  0 0.30471964E+03</rscale>
<asrwt>0</asrwt>
<pdfrwt beam="1">  1        2 0.14661704E+00 0.30471964E+03</pdfrwt>
<pdfrwt beam="2">  1       -2 0.37473972E-02 0.30471964E+03</pdfrwt>
<totfact> 0.85304873E+03</totfact>
</mgrwt>
</event>
<event>
 8      1 +1.6198320e-01 3.16141400e+02 7.81860800e-03 1.07743900e-01
        3 -1    0    0  501    0 +0.0000000000e+00 +0.0000000000e+00 +1.5249779788e+03 1.5249779821e+03 1.0100000000e-01 0.0000e+00 -1.0000e+00
       -3 -1    0    0    0  501 -0.0000000000e+00 -0.0000000000e+00 -1.6384569858e+01 1.6384881154e+01 1.0100000000e-01 0.0000e+00 1.0000e+00
  1000101  2    1    2    0    0 +2.5030134837e+01 +5.3411341379e+01 +1.1274300957e+03 1.1358820000e+03 1.2510003207e+02 1.4534e+02 0.0000e+00
 -1000101  2    1    2    0    0 -2.5030134837e+01 -5.3411341379e+01 +3.8116331315e+02 4.0548086329e+02 1.2509988074e+02 7.5760e+01 0.0000e+00
       11  1    3    3    0    0 +9.8287951674e-02 +1.1841132283e-01 +1.2174226695e+00 1.2271104189e+00 5.1100000000e-04 0.0000e+00 1.0000e+00
      255  1    3    3    0    0 +2.4931846885e+01 +5.3292930057e+01 +1.1262126731e+03 1.1346548895e+03 1.2500000000e+02 0.0000e+00 0.0000e+00
      -11  1    4    4    0    0 -8.2610232671e-02 -3.4807520752e-02 +5.5520737175e-01 5.6239799147e-01 5.1100000000e-04 0.0000e+00 -1.0000e+00
      255  1    4    4    0    0 -2.4947524604e+01 -5.3376533859e+01 +3.8060810578e+02 4.0491846530e+02 1.2500000000e+02 0.0000e+00 0.0000e+00
<mgrwt>
<rscale>  0 0.31614143E+03</rscale>
<asrwt>0</asrwt>
<pdfrwt beam="1">  1        3 0.23461213E+00 0.31614143E+03</pdfrwt>
<pdfrwt beam="2">  1       -3 0.25207261E-02 0.31614143E+03</pdfrwt>
<totfact> 0.17142533E+02</totfact>
</mgrwt>
</event>
<event>
 8      1 +1.6198320e-01 3.13222200e+02 7.81860800e-03 1.07881200e-01
        2 -1    0    0  501    0 +0.0000000000e+00 +0.0000000000e+00 +8.4372654585e+02 8.4372654585e+02 2.5500000000e-03 0.0000e+00 1.0000e+00
       -2 -1    0    0    0  501 -0.0000000000e+00 -0.0000000000e+00 -2.9069890090e+01 2.9069890202e+01 2.5500000000e-03 0.0000e+00 -1.0000e+00
  1000101  2    1    2    0    0 -6.6474402040e+01 +5.5914451700e+01 +3.0563960184e+02 3.4148330055e+02 1.2509998523e+02 1.0881e+02 0.0000e+00
 -1000101  2    1    2    0    0 +6.6474402040e+01 -5.5914451700e+01 +5.0901705392e+02 5.3131313551e+02 1.2510001897e+02 2.8056e+00 0.0000e+00
       11  1    3    3    0    0 -7.9791399697e-02 +1.9554093335e-02 +4.5760543687e-01 4.6492152779e-01 5.1100000000e-04 0.0000e+00 1.0000e+00
      255  1    3    3    0    0 -6.6394610641e+01 +5.5894897607e+01 +3.0518199640e+02 3.4101837902e+02 1.2500000000e+02 0.0000e+00 0.0000e+00
      -11  1    4    4    0    0 -5.9223403981e-02 -1.0699489372e-02 +2.0632144911e-01 2.1492019946e-01 5.1100000000e-04 0.0000e+00 -1.0000e+00
      255  1    4    4    0    0 +6.6533625444e+01 -5.5903752210e+01 +5.0881073247e+02 5.3109821531e+02 1.2500000000e+02 0.0000e+00 0.0000e+00
<mgrwt>
<rscale>  0 0.31322221E+03</rscale>
<asrwt>0</asrwt>
<pdfrwt beam="1">  1        2 0.12980409E+00 0.31322221E+03</pdfrwt>
<pdfrwt beam="2">  1       -2 0.44722905E-02 0.31322221E+03</pdfrwt>
<totfact> 0.76971020E+03</totfact>
</mgrwt>
</event>
<event>
 8      1 +1.6198320e-01 3.10166900e+02 7.81860800e-03 1.08026600e-01
       -2 -1    0    0    0  501 -0.0000000000e+00 +0.0000000000e+00 +1.2440334872e+02 1.2440334874e+02 2.5500000000e-03 0.0000e+00 -1.0000e+00
        2 -1    0    0  501    0 +0.0000000000e+00 -0.0000000000e+00 -1.9332984904e+02 1.9332984905e+02 2.5500000000e-03 0.0000e+00 1.0000e+00
  1000101  2    1    2    0    0 -4.6335087805e+00 +3.8260909227e+01 -1.1965145916e+02 1.7734666863e+02 1.2509997049e+02 1.0546e+01 0.0000e+00
 -1000101  2    1    2    0    0 +4.6335087805e+00 -3.8260909227e+01 +5.0724958838e+01 1.4038652916e+02 1.2509991824e+02 2.0181e+02 0.0000e+00
       11  1    3    3    0    0 +5.2453424376e-02 -2.7859947278e-02 -1.6147811032e-01 1.7205516448e-01 5.1100000000e-04 0.0000e+00 1.0000e+00
      255  1    3    3    0    0 -4.6859622049e+00 +3.8288769174e+01 -1.1948998105e+02 1.7717461347e+02 1.2500000000e+02 0.0000e+00 0.0000e+00
      -11  1    4    4    0    0 +2.3873353765e-02 +1.3515027944e-02 +1.3034872480e-01 1.3320527083e-01 5.1100000000e-04 0.0000e+00 -1.0000e+00
      255  1    4    4    0    0 +4.6096354268e+00 -3.8274424255e+01 +5.0594610113e+01 1.4025332389e+02 1.2500000000e+02 0.0000e+00 0.0000e+00
<mgrwt>
<rscale>  0 0.31016693E+03</rscale>
<asrwt>0</asrwt>
<pdfrwt beam="1">  1        2 0.29743054E-01 0.31016693E+03</pdfrwt>
<pdfrwt beam="2">  1       -2 0.19138977E-01 0.31016693E+03</pdfrwt>
<totfact> 0.40114654E+03</totfact>
</mgrwt>
</event>
<event>
 8      1 +1.6198320e-01 4.53084200e+02 7.81860800e-03 1.02680600e-01
       -2 -1    0    0    0  501 -0.0000000000e+00 +0.0000000000e+00 +1.8240920712e+01 1.8240920890e+01 2.5500000000e-03 0.0000e+00 -1.0000e+00
        2 -1    0    0  501    0 +0.0000000000e+00 -0.0000000000e+00 -2.8135269958e+03 2.8135269958e+03 2.5500000000e-03 0.0000e+00 1.0000e+00
  1000101  2    1    2    0    0 +1.0522095580e+02 +4.5741686441e+01 -2.3352969381e+03 2.3414580012e+03 1.2510008312e+02 1.0682e+02 0.0000e+00
 -1000101  2    1    2    0    0 -1.0522095580e+02 -4.5741686441e+01 -4.5998913692e+02 4.9030991544e+02 1.2510018255e+02 2.0256e+02 0.0000e+00
       11  1    3    3    0    0 +1.4818036651e-01 -4.2181727966e-02 -2.2148387698e+00 2.2201909280e+00 5.1100000000e-04 0.0000e+00 1.0000e+00
      255  1    3    3    0    0 +1.0507277543e+02 +4.5783868169e+01 -2.3330820994e+03 2.3392378103e+03 1.2500000000e+02 0.0000e+00 0.0000e+00
      -11  1    4    4    0    0 +1.9343572311e-02 +6.8065942057e-03 +2.6693226865e-04 2.0514284977e-02 5.1100000000e-04 0.0000e+00 -1.0000e+00
      255  1    4    4    0    0 -1.0524029937e+02 -4.5748493035e+01 -4.5998940385e+02 4.9028940115e+02 1.2500000000e+02 0.0000e+00 0.0000e+00
<mgrwt>
<rscale>  0 0.45308420E+03</rscale>
<asrwt>0</asrwt>
<pdfrwt beam="1">  1        2 0.43284996E+00 0.45308420E+03</pdfrwt>
<pdfrwt beam="2">  1       -2 0.28062977E-02 0.45308420E+03</pdfrwt>
<totfact> 0.12237938E+03</totfact>
</mgrwt>
</event>
<event>
 8      1 +1.6198320e-01 3.20832400e+02 7.81860800e-03 1.07526700e-01
       -2 -1    0    0    0  501 -0.0000000000e+00 +0.0000000000e+00 +1.9805258140e+01 1.9805258305e+01 2.5500000000e-03 0.0000e+00 -1.0000e+00
        2 -1    0    0  501    0 +0.0000000000e+00 -0.0000000000e+00 -1.2993194590e+03 1.2993194590e+03 2.5500000000e-03 0.0000e+00 1.0000e+00
  1000101  2    1    2    0    0 -2.4533918925e+01 -5.9857177851e+01 -9.5553433152e+02 9.6585746172e+02 1.2509989100e+02 3.2811e+01 0.0000e+00
 -1000101  2    1    2    0    0 +2.4533918925e+01 +5.9857177851e+01 -3.2397986931e+02 3.5326725556e+02 1.2509997287e+02 5.2271e+01 0.0000e+00
       11  1    3    3    0    0 +2.6811043755e-02 -4.0797190876e-02 -1.2969297144e+00 1.2978482917e+00 5.1100000000e-04 0.0000e+00 1.0000e+00
      255  1    3    3    0    0 -2.4560729968e+01 -5.9816380660e+01 -9.5423740181e+02 9.6455961343e+02 1.2500000000e+02 0.0000e+00 0.0000e+00
      -11  1    4    4    0    0 +6.9096540841e-02 +9.7454132579e-03 -4.4802615080e-02 8.2926717499e-02 5.1100000000e-04 0.0000e+00 -1.0000e+00
      255  1    4    4    0    0 +2.4464822384e+01 +5.9847432438e+01 -3.2393506669e+02 3.5318432884e+02 1.2500000000e+02 0.0000e+00 0.0000e+00
<mgrwt>
<rscale>  0 0.32083240E+03</rscale>
<asrwt>0</asrwt>
<pdfrwt beam="1">  1        2 0.19989523E+00 0.32083240E+03</pdfrwt>
<pdfrwt beam="2">  1       -2 0.30469638E-02 0.32083240E+03</pdfrwt>
<totfact> 0.72878672E+03</totfact>
</mgrwt>
</event>
<event>
 8      1 +1.6198320e-01 2.98754000e+02 7.81860800e-03 1.08586500e-01
        2 -1    0    0  501    0 +0.0000000000e+00 +0.0000000000e+00 +1.0770236304e+03 1.0770236304e+03 2.5500000000e-03 0.0000e+00 1.0000e+00
       -2 -1    0    0    0  501 -0.0000000000e+00 -0.0000000000e+00 -2.0717734062e+01 2.0717734219e+01 2.5500000000e-03 0.0000e+00 -1.0000e+00
  1000101  2    1    2    0    0 +6.9699216158e+01 -1.8708062372e+01 +3.8797651600e+02 4.1398551344e+02 1.2510098338e+02 7.9978e+00 0.0000e+00
 -1000101  2    1    2    0    0 -6.9699216158e+01 +1.8708062372e+01 +6.6832938032e+02 6.8375585117e+02 1.2509968452e+02 6.1584e+01 0.0000e+00
       11  1    3    3    0    0 +9.1771615422e-02 +5.0943603479e-02 +5.3138160000e-01 5.4164928327e-01 5.1100000000e-04 0.0000e+00 1.0000e+00
      255  1    3    3    0    0 +6.9607444543e+01 -1.8759005976e+01 +3.8744513440e+02 4.1344386416e+02 1.2500000000e+02 0.0000e+00 0.0000e+00
      -11  1    4    4    0    0 -8.2334501794e-02 -6.9439893184e-02 +7.5864499791e-01 7.6625280615e-01 5.1100000000e-04 0.0000e+00 -1.0000e+00
      255  1    4    4    0    0 -6.9616881656e+01 +1.8777502265e+01 +6.6757073533e+02 6.8298959836e+02 1.2500000000e+02 0.0000e+00 0.0000e+00
<mgrwt>
<rscale>  0 0.29875401E+03</rscale>
<asrwt>0</asrwt>
<pdfrwt beam="1">  1        2 0.16569592E+00 0.29875401E+03</pdfrwt>
<pdfrwt beam="2">  1       -2 0.31873442E-02 0.29875401E+03</pdfrwt>
<totfact> 0.91284220E+03</totfact>
</mgrwt>
</event>
<event>
 8      1 +1.6198320e-01 3.21099800e+02 7.81860800e-03 1.07514400e-01
        2 -1    0    0  501    0 +0.0000000000e+00 +0.0000000000e+00 +8.7318788029e+02 8.7318788029e+02 2.5500000000e-03 0.0000e+00 1.0000e+00
       -2 -1    0    0    0  501 -0.0000000000e+00 -0.0000000000e+00 -2.9519736352e+01 2.9519736462e+01 2.5500000000e-03 0.0000e+00 -1.0000e+00
  1000101  2    1    2    0    0 +6.6204602019e+01 -2.8743155784e+01 +2.2470140403e+02 2.6711412770e+02 1.2510003162e+02 9.4964e+00 0.0000e+00
 -1000101  2    1    2    0    0 -6.6204602019e+01 +2.8743155784e+01 +6.1896673991e+02 6.3559348905e+02 1.2510011945e+02 1.2055e+02 0.0000e+00
       11  1    3    3    0    0 -3.4926612162e-02 +4.1829283072e-02 +4.1144727011e-02 6.8284016001e-02 5.1100000000e-04 0.0000e+00 1.0000e+00
      255  1    3    3    0    0 +6.6239528631e+01 -2.8784985067e+01 +2.2466025931e+02 2.6704584369e+02 1.2500000000e+02 0.0000e+00 0.0000e+00
      -11  1    4    4    0    0 -2.1707374653e-02 -6.6683704161e-02 +5.5564470217e-01 5.6005287490e-01 5.1100000000e-04 0.0000e+00 -1.0000e+00
      255  1    4    4    0    0 -6.6182894645e+01 +2.8809839488e+01 +6.1841109520e+02 6.3503343618e+02 1.2500000000e+02 0.0000e+00 0.0000e+00
<mgrwt>
<rscale>  0 0.32109984E+03</rscale>
<asrwt>0</asrwt>
<pdfrwt beam="1">  1        2 0.13433658E+00 0.32109984E+03</pdfrwt>
<pdfrwt beam="2">  1       -2 0.45414983E-02 0.32109984E+03</pdfrwt>
<totfact> 0.71911872E+03</totfact>
</mgrwt>
</event>
<event>
 8      1 +1.6198320e-01 3.11941000e+02 7.81860800e-03 1.07941900e-01
        2 -1    0    0  501    0 +0.0000000000e+00 +0.0000000000e+00 +1.1830634061e+03 1.1830634061e+03 2.5500000000e-03 0.0000e+00 1.0000e+00
       -2 -1    0    0    0  501 -0.0000000000e+00 -0.0000000000e+00 -2.0562547711e+01 2.0562547869e+01 2.5500000000e-03 0.0000e+00 -1.0000e+00
  1000101  2    1    2    0    0 -4.7507005749e+01 -2.6248339213e+01 +8.7335011894e+02 8.8393230344e+02 1.2509994365e+02 3.5918e+01 0.0000e+00
 -1000101  2    1    2    0    0 +4.7507005749e+01 +2.6248339213e+01 +2.8915073948e+02 3.1969365056e+02 1.2509991672e+02 7.6871e+01 0.0000e+00
       11  1    3    3    0    0 -3.8025137285e-02 -7.1370788442e-02 +1.9714836977e-01 2.1309021877e-01 5.1100000000e-04 0.0000e+00 1.0000e+00
      255  1    3    3    0    0 -4.7468980612e+01 -2.6176968424e+01 +8.7315297057e+02 8.8371921322e+02 1.2500000000e+02 0.0000e+00 0.0000e+00
      -11  1    4    4    0    0 +1.3378657688e-01 +6.8332083221e-02 +3.6481109029e-01 3.9453201958e-01 5.1100000000e-04 0.0000e+00 -1.0000e+00
      255  1    4    4    0    0 +4.7373219172e+01 +2.6180007130e+01 +2.8878592839e+02 3.1929911854e+02 1.2500000000e+02 0.0000e+00 0.0000e+00
<mgrwt>
<rscale>  0 0.31194101E+03</rscale>
<asrwt>0</asrwt>
<pdfrwt beam="1">  1        2 0.18200975E+00 0.31194101E+03</pdfrwt>
<pdfrwt beam="2">  1       -2 0.31634689E-02 0.31194101E+03</pdfrwt>
<totfact> 0.80122142E+03</totfact>
</mgrwt>
</event>
<event>
 8      1 +1.6198320e-01 2.51749700e+02 7.81860800e-03 1.11220400e-01
       -2 -1    0    0    0  501 -0.0000000000e+00 +0.0000000000e+00 +4.6757670289e+02 4.6757670289e+02 2.5500000000e-03 0.0000e+00 -1.0000e+00
        2 -1    0    0  501    0 +0.0000000000e+00 -0.0000000000e+00 -3.3886358913e+01 3.3886359009e+01 2.5500000000e-03 0.0000e+00 1.0000e+00
  1000101  2    1    2    0    0 +1.1186741472e+01 +2.3647885510e+00 +2.3273972674e+02 2.6447787226e+02 1.2510007635e+02 3.1592e+01 0.0000e+00
 -1000101  2    1    2    0    0 -1.1186741472e+01 -2.3647885510e+00 +2.0095061724e+02 2.3698518965e+02 1.2510033627e+02 4.9677e+01 0.0000e+00
       11  1    3    3    0    0 -8.2547647642e-02 +3.9334670926e-02 +1.3650690905e-01 1.6430376687e-01 5.1100000000e-04 0.0000e+00 1.0000e+00
      255  1    3    3    0    0 +1.1269289119e+01 +2.3254538801e+00 +2.3260321983e+02 2.6431356849e+02 1.2500000000e+02 0.0000e+00 0.0000e+00
      -11  1    4    4    0    0 -2.4991505995e-02 +9.6517379578e-02 +1.8085845327e-01 2.0651929976e-01 5.1100000000e-04 0.0000e+00 -1.0000e+00
      255  1    4    4    0    0 -1.1161749966e+01 -2.4613059306e+00 +2.0076975878e+02 2.3677867035e+02 1.2500000000e+02 0.0000e+00 0.0000e+00
<mgrwt>
<rscale>  0 0.25174965E+03</rscale>
<asrwt>0</asrwt>
<pdfrwt beam="1">  1        2 0.52132862E-02 0.25174965E+03</pdfrwt>
<pdfrwt beam="2">  1       -2 0.71934874E-01 0.25174965E+03</pdfrwt>
<totfact> 0.26561888E+03</totfact>
</mgrwt>
</event>
<event>
 8      1 +1.6198320e-01 3.34846000e+02 7.81860800e-03 1.06901300e-01
       -4 -1    0    0    0  501 -0.0000000000e+00 +0.0000000000e+00 +2.7924604263e+01 2.7953468895e+01 1.2700000000e+00 0.0000e+00 -1.0000e+00
        4 -1    0    0  501    0 +0.0000000000e+00 -0.0000000000e+00 -1.0032427741e+03 1.0032435780e+03 1.2700000000e+00 0.0000e+00 1.0000e+00
  1000101  2    1    2    0    0 -8.2143046207e+01 -6.6066430128e+01 -5.9732285501e+02 6.1931965619e+02 1.2509992082e+02 4.2491e+00 0.0000e+00
 -1000101  2    1    2    0    0 +8.2143046207e+01 +6.6066430128e+01 -3.7799531485e+02 4.1187739067e+02 1.2510105384e+02 1.6035e+02 0.0000e+00
       11  1    3    3    0    0 -2.4964569711e-02 -9.7617774027e-02 -7.6951296864e-01 7.7608178021e-01 5.1100000000e-04 0.0000e+00 1.0000e+00
      255  1    3    3    0    0 -8.2118081638e+01 -6.5968812354e+01 -5.9655334204e+02 6.1854357440e+02 1.2500000000e+02 0.0000e+00 0.0000e+00
      -11  1    4    4    0    0 -6.0254989262e-03 -2.3812398014e-03 +1.4445539750e-02 1.5840191926e-02 5.1100000000e-04 0.0000e+00 -1.0000e+00
      255  1    4    4    0    0 +8.2149071706e+01 +6.6068811368e+01 -3.7800976039e+02 4.1186155048e+02 1.2500000000e+02 0.0000e+00 0.0000e+00
<mgrwt>
<rscale>  0 0.33484596E+03</rscale>
<asrwt>0</asrwt>
<pdfrwt beam="1">  1        4 0.15434730E+00 0.33484596E+03</pdfrwt>
<pdfrwt beam="2">  1       -4 0.42983759E-02 0.33484596E+03</pdfrwt>
<totfact> 0.17032827E+02</totfact>
</mgrwt>
</event>
<event>
 8      1 +1.6198320e-01 3.93183300e+02 7.81860800e-03 1.04616600e-01
       -1 -1    0    0    0  501 -0.0000000000e+00 +0.0000000000e+00 +3.3074794007e+01 3.3074794391e+01 5.0400000000e-03 0.0000e+00 1.0000e+00
        1 -1    0    0  501    0 +0.0000000000e+00 -0.0000000000e+00 -1.1685113899e+03 1.1685113899e+03 5.0400000000e-03 0.0000e+00 -1.0000e+00
  1000101  2    1    2    0    0 +2.1655061378e+00 -1.3369524012e+01 -1.0611638849e+02 1.6460331701e+02 1.2510048152e+02 1.0303e+02 0.0000e+00
 -1000101  2    1    2    0    0 -2.1655061378e+00 +1.3369524012e+01 -1.0293202074e+03 1.0369828673e+03 1.2509973654e+02 1.1004e+00 0.0000e+00
       11  1    3    3    0    0 +5.9178934876e-02 -6.9742489637e-02 -1.5499806704e-02 9.2772120398e-02 5.1100000000e-04 0.0000e+00 1.0000e+00
      255  1    3    3    0    0 +2.1063272029e+00 -1.3299781522e+01 -1.0610088868e+02 1.6451054489e+02 1.2500000000e+02 0.0000e+00 0.0000e+00
      -11  1    4    4    0    0 -2.2734910669e-02 +9.5350160432e-02 -4.9212940734e-01 5.0179691504e-01 5.1100000000e-04 0.0000e+00 -1.0000e+00
      255  1    4    4    0    0 -2.1427712271e+00 +1.3274173851e+01 -1.0288280780e+03 1.0364810704e+03 1.2500000000e+02 0.0000e+00 0.0000e+00
<mgrwt>
<rscale>  0 0.39318328E+03</rscale>
<asrwt>0</asrwt>
<pdfrwt beam="1">  1        1 0.17977095E+00 0.39318328E+03</pdfrwt>
<pdfrwt beam="2">  1       -1 0.50884308E-02 0.39318328E+03</pdfrwt>
<totfact> 0.20662504E+03</totfact>
</mgrwt>
</event>
<event>
 8      1 +1.6198320e-01 2.75141700e+02 7.81860800e-03 1.09837200e-01
       -2 -1    0    0    0  501 -0.0000000000e+00 +0.0000000000e+00 +1.8721672192e+02 1.8721672194e+02 2.5500000000e-03 0.0000e+00 -1.0000e+00
        2 -1    0    0  501    0 +0.0000000000e+00 -0.0000000000e+00 -1.0109003559e+02 1.0109003562e+02 2.5500000000e-03 0.0000e+00 1.0000e+00
  1000101  2    1    2    0    0 -2.4782171363e+01 +4.9454328115e+01 +5.8458525032e+01 1.4875237684e+02 1.2509989560e+02 2.3844e+02 0.0000e+00
 -1000101  2    1    2    0    0 +2.4782171363e+01 -4.9454328115e+01 +2.7668161294e+01 1.3955438072e+02 1.2510000577e+02 5.3509e+01 0.0000e+00
       11  1    3    3    0    0 -9.6073794741e-02 +3.3392200332e-02 -1.9253803150e-02 1.0351899891e-01 5.1100000000e-04 0.0000e+00 1.0000e+00
      255  1    3    3    0    0 -2.4686097568e+01 +4.9420935915e+01 +5.8477778835e+01 1.4864885784e+02 1.2500000000e+02 0.0000e+00 0.0000e+00
      -11  1    4    4    0    0 -7.9670354787e-02 -3.4528865385e-02 -3.9280432480e-03 8.6921220781e-02 5.1100000000e-04 0.0000e+00 -1.0000e+00
      255  1    4    4    0    0 +2.4861841717e+01 -4.9419799249e+01 +2.7672089338e+01 1.3946745950e+02 1.2500000000e+02 0.0000e+00 0.0000e+00
<mgrwt>
<rscale>  0 0.27514175E+03</rscale>
<asrwt>0</asrwt>
<pdfrwt beam="1">  1        2 0.15552313E-01 0.27514175E+03</pdfrwt>
<pdfrwt beam="2">  1       -2 0.28802573E-01 0.27514175E+03</pdfrwt>
<totfact> 0.40881660E+03</totfact>
</mgrwt>
</event>
<event>
 8      1 +1.6198320e-01 2.99937200e+02 7.81860800e-03 1.08527200e-01
        2 -1    0    0  501    0 +0.0000000000e+00 +0.0000000000e+00 +4.9884370375e+01 4.9884370441e+01 2.5500000000e-03 0.0000e+00 1.0000e+00
       -2 -1    0    0    0  501 -0.0000000000e+00 -0.0000000000e+00 -4.5085415938e+02 4.5085415938e+02 2.5500000000e-03 0.0000e+00 -1.0000e+00
  1000101  2    1    2    0    0 +3.9125448477e+01 -2.9528488253e+01 -3.1170075549e+02 3.3942613293e+02 1.2509998565e+02 8.7839e+00 0.0000e+00
 -1000101  2    1    2    0    0 -3.9125448477e+01 +2.9528488253e+01 -8.9269033512e+01 1.6131239689e+02 1.2509994688e+02 1.7958e+01 0.0000e+00
       11  1    3    3    0    0 +1.0683239907e-01 +4.2244063256e-02 -2.6635435758e-01 2.9007348602e-01 5.1100000000e-04 0.0000e+00 1.0000e+00
      255  1    3    3    0    0 +3.9018616078e+01 -2.9570732317e+01 -3.1143440113e+02 3.3913605945e+02 1.2500000000e+02 0.0000e+00 0.0000e+00
      -11  1    4    4    0    0 -9.0453270606e-02 +2.5504984547e-02 -1.8191424000e-01 2.0475680755e-01 5.1100000000e-04 0.0000e+00 -1.0000e+00
      255  1    4    4    0    0 -3.9034995206e+01 +2.9502983269e+01 -8.9087119272e+01 1.6110764008e+02 1.2500000000e+02 0.0000e+00 0.0000e+00
<mgrwt>
<rscale>  0 0.29993717E+03</rscale>
<asrwt>0</asrwt>
<pdfrwt beam="1">  1        2 0.76745188E-02 0.29993717E+03</pdfrwt>
<pdfrwt beam="2">  1       -2 0.69362176E-01 0.29993717E+03</pdfrwt>
<totfact> 0.17470622E+03</totfact>
</mgrwt>
</event>
<event>
 8      1 +1.6198320e-01 2.67366200e+02 7.81860800e-03 1.10279600e-01
        2 -1    0    0  501    0 +0.0000000000e+00 +0.0000000000e+00 +1.5579092779e+02 1.5579092781e+02 2.5500000000e-03 0.0000e+00 1.0000e+00
       -2 -1    0    0    0  501 -0.0000000000e+00 -0.0000000000e+00 -1.1471256806e+02 1.1471256809e+02 2.5500000000e-03 0.0000e+00 -1.0000e+00
  1000101  2    1    2    0    0 +3.3370319917e+01 +2.0390815683e+01 -6.0715257700e+00 1.3121068829e+02 1.2510003070e+02 3.7773e+01 0.0000e+00
 -1000101  2    1    2    0    0 -3.3370319917e+01 -2.0390815683e+01 +4.7149885494e+01 1.3929280761e+02 1.2510000373e+02 2.2136e+01 0.0000e+00
       11  1    3    3    0    0 -7.4002392503e-02 +3.5637089569e-02 -3.2866524721e-03 8.2203524591e-02 5.1100000000e-04 0.0000e+00 1.0000e+00
      255  1    3    3    0    0 +3.3444322310e+01 +2.0355178594e+01 -6.0682391176e+00 1.3112848476e+02 1.2500000000e+02 0.0000e+00 0.0000e+00
      -11  1    4    4    0    0 -9.8601150805e-02 -5.1712481254e-02 -2.2057190154e-02 1.1350395771e-01 5.1100000000e-04 0.0000e+00 -1.0000e+00
      255  1    4    4    0    0 -3.3271718766e+01 -2.0339103202e+01 +4.7171942684e+01 1.3917930365e+02 1.2500000000e+02 0.0000e+00 0.0000e+00
<mgrwt>
<rscale>  0 0.26736625E+03</rscale>
<asrwt>0</asrwt>
<pdfrwt beam="1">  1        2 0.23967835E-01 0.26736625E+03</pdfrwt>
<pdfrwt beam="2">  1       -2 0.17648088E-01 0.26736625E+03</pdfrwt>
<totfact> 0.58231328E+03</totfact>
</mgrwt>
</event>
<event>
 8      1 +1.6198320e-01 3.63324600e+02 7.81860800e-03 1.05727500e-01
        2 -1    0    0  501    0 +0.0000000000e+00 +0.0000000000e+00 +5.5840980893e+01 5.5840980951e+01 2.5500000000e-03 0.0000e+00 1.0000e+00
       -2 -1    0    0    0  501 -0.0000000000e+00 -0.0000000000e+00 -5.9098509339e+02 5.9098509339e+02 2.5500000000e-03 0.0000e+00 -1.0000e+00
  1000101  2    1    2    0    0 +6.5463797813e+01 +7.8296725404e+01 -4.1583282494e+02 4.4607481869e+02 1.2509963846e+02 1.4493e+00 0.0000e+00
 -1000101  2    1    2    0    0 -6.5463797813e+01 -7.8296725404e+01 -1.1931128755e+02 2.0075125565e+02 1.2509994913e+02 6.1209e+01 0.0000e+00
       11  1    3    3    0    0 -5.0222081078e-02 +6.7898589818e-02 -3.1495468155e-01 3.2608156722e-01 5.1100000000e-04 0.0000e+00 1.0000e+00
      255  1    3    3    0    0 +6.5514019894e+01 +7.8228826814e+01 -4.1551787026e+02 4.4574873713e+02 1.2500000000e+02 0.0000e+00 0.0000e+00
      -11  1    4    4    0    0 -1.1276687371e-01 +1.2909346971e-03 -1.5005687352e-01 1.8771084340e-01 5.1100000000e-04 0.0000e+00 -1.0000e+00
      255  1    4    4    0    0 -6.5351030939e+01 -7.8298016338e+01 -1.1916123068e+02 2.0056354480e+02 1.2500000000e+02 0.0000e+00 0.0000e+00
<mgrwt>
<rscale>  0 0.36332458E+03</rscale>
<asrwt>0</asrwt>
<pdfrwt beam="1">  1        2 0.85909206E-02 0.36332458E+03</pdfrwt>
<pdfrwt beam="2">  1       -2 0.90920779E-01 0.36332458E+03</pdfrwt>
<totfact> 0.83415036E+02</totfact>
</mgrwt>
</event>
<event>
 8      1 +1.6198320e-01 3.20620300e+02 7.81860800e-03 1.07536400e-01
       -2 -1    0    0    0  501 -0.0000000000e+00 +0.0000000000e+00 +5.3951335998e+01 5.3951336058e+01 2.5500000000e-03 0.0000e+00 -1.0000e+00
        2 -1    0    0  501    0 +0.0000000000e+00 -0.0000000000e+00 -4.7634313855e+02 4.7634313856e+02 2.5500000000e-03 0.0000e+00 1.0000e+00
  1000101  2    1    2    0    0 +6.2779114320e+01 -3.1997023221e+01 -9.3261142626e+01 1.7120947803e+02 1.2510003178e+02 1.7583e+02 0.0000e+00
 -1000101  2    1    2    0    0 -6.2779114320e+01 +3.1997023221e+01 -3.2913065993e+02 3.5908499659e+02 1.2510002711e+02 7.7659e+01 0.0000e+00
       11  1    3    3    0    0 +4.5201592299e-02 -8.4572629616e-02 -1.7863885091e-01 2.0275061973e-01 5.1100000000e-04 0.0000e+00 1.0000e+00
      255  1    3    3    0    0 +6.2733912727e+01 -3.1912450591e+01 -9.3082503775e+01 1.7100672741e+02 1.2500000000e+02 0.0000e+00 0.0000e+00
      -11  1    4    4    0    0 -1.3638111268e-01 -3.0209372064e-03 -2.0420070720e-01 2.4557508810e-01 5.1100000000e-04 0.0000e+00 -1.0000e+00
      255  1    4    4    0    0 -6.2642733207e+01 +3.2000044158e+01 -3.2892645922e+02 3.5883942150e+02 1.2500000000e+02 0.0000e+00 0.0000e+00
<mgrwt>
<rscale>  0 0.32062033E+03</rscale>
<asrwt>0</asrwt>
<pdfrwt beam="1">  1        2 0.73283557E-01 0.32062033E+03</pdfrwt>
<pdfrwt beam="2">  1       -2 0.83002059E-02 0.32062033E+03</pdfrwt>
<totfact> 0.58720243E+03</totfact>
</mgrwt>
</event>
<event>
 8      1 +1.6198320e-01 3.81580000e+02 7.81860800e-03 1.05035100e-01
        2 -1    0    0  501    0 +0.0000000000e+00 +0.0000000000e+00 +9.1250893688e+02 9.1250893689e+02 2.5500000000e-03 0.0000e+00 1.0000e+00
       -2 -1    0    0    0  501 -0.0000000000e+00 -0.0000000000e+00 -3.9890924313e+01 3.9890924395e+01 2.5500000000e-03 0.0000e+00 -1.0000e+00
  1000101  2    1    2    0    0 -1.0174133223e+02 -6.7535337731e+01 +6.2702416124e+02 6.5093903157e+02 1.2509997410e+02 1.4684e+02 0.0000e+00
 -1000101  2    1    2    0    0 +1.0174133223e+02 +6.7535337731e+01 +2.4559385133e+02 3.0146082971e+02 1.2509984616e+02 1.8310e+02 0.0000e+00
       11  1    3    3    0    0 -1.9557645686e-03 -9.0235812814e-02 +1.6811501707e-01 1.9081207251e-01 5.1100000000e-04 0.0000e+00 1.0000e+00
      255  1    3    3    0    0 -1.0173937647e+02 -6.7445101919e+01 +6.2685604622e+02 6.5074821950e+02 1.2500000000e+02 0.0000e+00 0.0000e+00
      -11  1    4    4    0    0 +1.7235192396e-01 +5.1716393440e-03 +2.8052542463e-01 3.2928210782e-01 5.1100000000e-04 0.0000e+00 -1.0000e+00
      255  1    4    4    0    0 +1.0156898031e+02 +6.7530166092e+01 +2.4531332591e+02 3.0113154760e+02 1.2500000000e+02 0.0000e+00 0.0000e+00
<mgrwt>
<rscale>  0 0.38158000E+03</rscale>
<asrwt>0</asrwt>
<pdfrwt beam="1">  1        2 0.14038599E+00 0.38158000E+03</pdfrwt>
<pdfrwt beam="2">  1       -2 0.61370655E-02 0.38158000E+03</pdfrwt>
<totfact> 0.42818867E+03</totfact>
</mgrwt>
</event>
<event>
 8      1 +1.6198320e-01 3.65475500e+02 7.81860800e-03 1.05643700e-01
       -2 -1    0    0    0  501 -0.0000000000e+00 +0.0000000000e+00 +1.7953319905e+02 1.7953319906e+02 2.5500000000e-03 0.0000e+00 -1.0000e+00
        2 -1    0    0  501    0 +0.0000000000e+00 -0.0000000000e+00 -1.8599948216e+02 1.8599948218e+02 2.5500000000e-03 0.0000e+00 1.0000e+00
  1000101  2    1    2    0    0 -7.7502720468e+01 +8.7905976900e+01 +6.0092915782e+01 1.8164606287e+02 1.2509996472e+02 2.9149e+01 0.0000e+00
 -1000101  2    1    2    0    0 +7.7502720468e+01 -8.7905976900e+01 -6.6559198894e+01 1.8388661837e+02 1.2510007596e+02 1.9834e+02 0.0000e+00
       11  1    3    3    0    0 -7.5439495196e-02 +7.1987718698e-02 -5.4693808947e-02 1.1774983201e-01 5.1100000000e-04 0.0000e+00 1.0000e+00
      255  1    3    3    0    0 -7.7427280973e+01 +8.7833989182e+01 +6.0147609591e+01 1.8152831304e+02 1.2500000000e+02 0.0000e+00 0.0000e+00
      -11  1    4    4    0    0 +1.7011942525e-01 -1.4207342926e-01 -6.2402841858e-02 2.3026040463e-01 5.1100000000e-04 0.0000e+00 -1.0000e+00
      255  1    4    4    0    0 +7.7332601043e+01 -8.7763903471e+01 -6.6496796053e+01 1.8365635797e+02 1.2500000000e+02 0.0000e+00 0.0000e+00
<mgrwt>
<rscale>  0 0.36547548E+03</rscale>
<asrwt>0</asrwt>
<pdfrwt beam="1">  1        2 0.28615305E-01 0.36547548E+03</pdfrwt>
<pdfrwt beam="2">  1       -2 0.27620492E-01 0.36547548E+03</pdfrwt>
<totfact> 0.22089226E+03</totfact>
</mgrwt>
</event>
<event>
 8      1 +1.6198320e-01 4.91648700e+02 7.81860800e-03 1.01598200e-01
        2 -1    0    0  501    0 +0.0000000000e+00 +0.0000000000e+00 +1.9468258359e+03 1.9468258359e+03 2.5500000000e-03 0.0000e+00 1.0000e+00
       -2 -1    0    0    0  501 -0.0000000000e+00 -0.0000000000e+00 -3.1040068762e+01 3.1040068866e+01 2.5500000000e-03 0.0000e+00 -1.0000e+00
  1000101  2    1    2    0    0 +8.6833194892e+01 +1.7091722423e+02 +5.9746743745e+02 6.3982032021e+02 1.2509996827e+02 1.1755e+01 0.0000e+00
 -1000101  2    1    2    0    0 -8.6833194892e+01 -1.7091722423e+02 +1.3183183297e+03 1.3380455845e+03 1.2510022661e+02 3.2637e+01 0.0000e+00
       11  1    3    3    0    0 +1.6511517345e-01 +1.9250712750e-01 +8.5310005736e-01 8.9000111440e-01 5.1100000000e-04 0.0000e+00 1.0000e+00
      255  1    3    3    0    0 +8.6668079719e+01 +1.7072471711e+02 +5.9661433739e+02 6.3893031909e+02 1.2500000000e+02 0.0000e+00 0.0000e+00
      -11  1    4    4    0    0 +1.7059021717e-02 -5.0702078301e-02 +1.0145564072e-01 1.1469620361e-01 5.1100000000e-04 0.0000e+00 -1.0000e+00
      255  1    4    4    0    0 -8.6850253914e+01 -1.7086652215e+02 +1.3182168740e+03 1.3379308883e+03 1.2500000000e+02 0.0000e+00 0.0000e+00
<mgrwt>
<rscale>  0 0.49164869E+03</rscale>
<asrwt>0</asrwt>
<pdfrwt beam="1">  1        2 0.29951163E+00 0.49164869E+03</pdfrwt>
<pdfrwt beam="2">  1       -2 0.47753958E-02 0.49164869E+03</pdfrwt>
<totfact> 0.16411917E+03</totfact>
</mgrwt>
</event>
<event>
 8      1 +1.6198320e-01 5.97128500e+02 7.81860800e-03 9.91138100e-02
       -2 -1    0    0    0  501 -0.0000000000e+00 +0.0000000000e+00 +1.1834302555e+02 1.1834302558e+02 2.5500000000e-03 0.0000e+00 -1.0000e+00
        2 -1    0    0  501    0 +0.0000000000e+00 -0.0000000000e+00 -7.5323926608e+02 7.5323926609e+02 2.5500000000e-03 0.0000e+00 1.0000e+00
  1000101  2    1    2    0    0 -6.0962335490e+01 +2.5503654466e+02 -2.1705628530e+02 3.6266158454e+02 1.2509975399e+02 1.4029e+02 0.0000e+00
 -1000101  2    1    2    0    0 +6.0962335490e+01 -2.5503654466e+02 -4.1783995523e+02 5.0892070712e+02 1.2510000996e+02 5.0616e+01 0.0000e+00
       11  1    3    3    0    0 -1.1599205534e-01 +2.2234370531e-01 -2.9268335795e-01 3.8542793014e-01 5.1100000000e-04 0.0000e+00 1.0000e+00
      255  1    3    3    0    0 -6.0846343434e+01 +2.5481420096e+02 -2.1676360195e+02 3.6227615661e+02 1.2500000000e+02 0.0000e+00 0.0000e+00
      -11  1    4    4    0    0 +6.1984007352e-02 -3.6223891120e-02 -3.7661035492e-02 8.1072820178e-02 5.1100000000e-04 0.0000e+00 -1.0000e+00
      255  1    4    4    0    0 +6.0900351482e+01 -2.5500032077e+02 -4.1780229419e+02 5.0883963430e+02 1.2500000000e+02 0.0000e+00 0.0000e+00
<mgrwt>
<rscale>  0 0.59712851E+03</rscale>
<asrwt>0</asrwt>
<pdfrwt beam="1">  1        2 0.11588296E+00 0.59712851E+03</pdfrwt>
<pdfrwt beam="2">  1       -2 0.18206620E-01 0.59712851E+03</pdfrwt>
<totfact> 0.94221279E+02</totfact>
</mgrwt>
</event>
<event>
 8      1 +1.6198320e-01 2.93405500e+02 7.81860800e-03 1.08858400e-01
        2 -1    0    0  501    0 +0.0000000000e+00 +0.0000000000e+00 +8.3198252761e+02 8.3198252761e+02 2.5500000000e-03 0.0000e+00 1.0000e+00
       -2 -1    0    0    0  501 -0.0000000000e+00 -0.0000000000e+00 -2.5867974358e+01 2.5867974484e+01 2.5500000000e-03 0.0000e+00 -1.0000e+00
  1000101  2    1    2    0    0 +5.8272614401e+01 +3.9387959071e+01 +4.9195990897e+02 5.1246631615e+02 1.2510021682e+02 1.5047e+02 0.0000e+00
 -1000101  2    1    2    0    0 -5.8272614401e+01 -3.9387959071e+01 +3.1415464428e+02 3.4538418595e+02 1.2509990595e+02 0.0000e+00 0.0000e+00
       11  1    3    3    0    0 -3.9048637947e-02 -3.5246193236e-02 +3.2758350370e-01 3.3178050467e-01 5.1100000000e-04 0.0000e+00 1.0000e+00
      255  1    3    3    0    0 +5.8311663039e+01 +3.9423205264e+01 +4.9163232546e+02 5.1213453564e+02 1.2500000000e+02 0.0000e+00 0.0000e+00
      -11  1    4    4    0    0 -3.8255324615e-02 -3.5288352941e-02 +6.3594534632e-03 5.2435116898e-02 5.1100000000e-04 0.0000e+00 -1.0000e+00
      255  1    4    4    0    0 -5.8234359076e+01 -3.9352670718e+01 +3.1414828483e+02 3.4533175083e+02 1.2500000000e+02 0.0000e+00 0.0000e+00
<mgrwt>
<rscale>  0 0.29340554E+03</rscale>
<asrwt>0</asrwt>
<pdfrwt beam="1">  1        2 0.12799730E+00 0.29340554E+03</pdfrwt>
<pdfrwt beam="2">  1       -2 0.39796888E-02 0.29340554E+03</pdfrwt>
<totfact> 0.93351803E+03</totfact>
</mgrwt>
</event>
<event>
 8      1 +1.6198320e-01 3.97431400e+02 7.81860800e-03 1.04467300e-01
       -2 -1    0    0    0  501 -0.0000000000e+00 +0.0000000000e+00 +1.4049849465e+02 1.4049849467e+02 2.5500000000e-03 0.0000e+00 -1.0000e+00
        2 -1    0    0  501    0 +0.0000000000e+00 -0.0000000000e+00 -2.8105595416e+02 2.8105595417e+02 2.5500000000e-03 0.0000e+00 1.0000e+00
  1000101  2    1    2    0    0 +1.3531178050e+02 -4.3408824121e+01 -1.3431094131e+02 2.3212730874e+02 1.2510017807e+02 6.5367e+01 0.0000e+00
 -1000101  2    1    2    0    0 -1.3531178050e+02 +4.3408824121e+01 -6.2465182026e+00 1.8942714010e+02 1.2510003383e+02 7.4098e+01 0.0000e+00
       11  1    3    3    0    0 +1.4604852699e-01 +8.8134116202e-03 -2.2209798603e-01 2.6596169833e-01 5.1100000000e-04 0.0000e+00 1.0000e+00
      255  1    3    3    0    0 +1.3516573197e+02 -4.3417637532e+01 -1.3408884332e+02 2.3186134704e+02 1.2500000000e+02 0.0000e+00 0.0000e+00
      -11  1    4    4    0    0 -6.1563550282e-02 -6.7669045647e-02 -2.7044040809e-02 9.5398174654e-02 5.1100000000e-04 0.0000e+00 -1.0000e+00
      255  1    4    4    0    0 -1.3525021695e+02 +4.3476493166e+01 -6.2194741618e+00 1.8933174193e+02 1.2500000000e+02 0.0000e+00 0.0000e+00
<mgrwt>
<rscale>  0 0.39743145E+03</rscale>
<asrwt>0</asrwt>
<pdfrwt beam="1">  1        2 0.43239378E-01 0.39743145E+03</pdfrwt>
<pdfrwt beam="2">  1       -2 0.21615153E-01 0.39743145E+03</pdfrwt>
<totfact> 0.21701116E+03</totfact>
</mgrwt>
</event>
<event>
 8      1 +1.6198320e-01 2.82283400e+02 7.81860800e-03 1.09444800e-01
       -2 -1    0    0    0  501 -0.0000000000e+00 +0.0000000000e+00 +2.4091388751e+01 2.4091388886e+01 2.5500000000e-03 0.0000e+00 -1.0000e+00
        2 -1    0    0  501    0 +0.0000000000e+00 -0.0000000000e+00 -8.2689206725e+02 8.2689206725e+02 2.5500000000e-03 0.0000e+00 1.0000e+00
  1000101  2    1    2    0    0 -4.8597095825e+01 -3.1321450121e+01 -4.9324888120e+02 5.1213983483e+02 1.2510012252e+02 1.4444e+00 0.0000e+00
 -1000101  2    1    2    0    0 +4.8597095825e+01 +3.1321450121e+01 -3.0955179730e+02 3.3884362131e+02 1.2509985424e+02 1.6756e+02 0.0000e+00
       11  1    3    3    0    0 -3.0387571204e-02 -1.1043974442e-01 -6.5427046085e-01 6.6422167888e-01 5.1100000000e-04 0.0000e+00 1.0000e+00
      255  1    3    3    0    0 -4.8566708254e+01 -3.1211010377e+01 -4.9259461074e+02 5.1147561315e+02 1.2500000000e+02 0.0000e+00 0.0000e+00
      -11  1    4    4    0    0 +8.1920796503e-02 -2.8804605896e-02 -7.6123782844e-02 1.1548079345e-01 5.1100000000e-04 0.0000e+00 -1.0000e+00
      255  1    4    4    0    0 +4.8515175028e+01 +3.1350254727e+01 -3.0947567351e+02 3.3872814051e+02 1.2500000000e+02 0.0000e+00 0.0000e+00
<mgrwt>
<rscale>  0 0.28228339E+03</rscale>
<asrwt>0</asrwt>
<pdfrwt beam="1">  1        2 0.12721414E+00 0.28228339E+03</pdfrwt>
<pdfrwt beam="2">  1       -2 0.37063681E-02 0.28228339E+03</pdfrwt>
<totfact> 0.10460051E+04</totfact>
</mgrwt>
</event>
<event>
 8      1 +1.6198320e-01 3.29715500e+02 7.81860800e-03 1.07126300e-01
        2 -1    0    0  501    0 +0.0000000000e+00 +0.0000000000e+00 +8.4415596419e+02 8.4415596419e+02 2.5500000000e-03 0.0000e+00 1.0000e+00
       -2 -1    0    0    0  501 -0.0000000000e+00 -0.0000000000e+00 -3.2195572871e+01 3.2195572972e+01 2.5500000000e-03 0.0000e+00 -1.0000e+00
  1000101  2    1    2    0    0 +5.2504675527e+01 +7.9614340314e+00 +1.5795424261e+02 2.0837391712e+02 1.2510004474e+02 2.0987e+01 0.0000e+00
 -1000101  2    1    2    0    0 -5.2504675527e+01 -7.9614340314e+00 +6.5400614870e+02 6.6797762004e+02 1.2509969204e+02 4.9475e+01 0.0000e+00
       11  1    3    3    0    0 -3.0331374361e-02 -6.9739897786e-02 +9.7053466431e-02 1.2330158994e-01 5.1100000000e-04 0.0000e+00 1.0000e+00
      255  1    3    3    0    0 +5.2535006902e+01 +8.0311739292e+00 +1.5785718914e+02 2.0825061553e+02 1.2500000000e+02 0.0000e+00 0.0000e+00
      -11  1    4    4    0    0 +3.7646066129e-02 -5.3863217290e-02 +6.1377538895e-01 6.1728353426e-01 5.1100000000e-04 0.0000e+00 -1.0000e+00
      255  1    4    4    0    0 -5.2542321593e+01 -7.9075708141e+00 +6.5339237331e+02 6.6736033651e+02 1.2500000000e+02 0.0000e+00 0.0000e+00
<mgrwt>
<rscale>  0 0.32971554E+03</rscale>
<asrwt>0</asrwt>
<pdfrwt beam="1">  1        2 0.12987013E+00 0.32971554E+03</pdfrwt>
<pdfrwt beam="2">  1       -2 0.49531657E-02 0.32971554E+03</pdfrwt>
<totfact> 0.65925405E+03</totfact>
</mgrwt>
</event>
<event>
 8      1 +1.6198320e-01 2.66455900e+02 7.81860800e-03 1.10332500e-01
       -2 -1    0    0    0  501 -0.0000000000e+00 +0.0000000000e+00 +4.4319854652e+01 4.4319854725e+01 2.5500000000e-03 0.0000e+00 -1.0000e+00
        2 -1    0    0  501    0 +0.0000000000e+00 -0.0000000000e+00 -4.0049052168e+02 4.0049052169e+02 2.5500000000e-03 0.0000e+00 1.0000e+00
  1000101  2    1    2    0    0 -3.6791465427e+01 -2.6983363414e+01 -1.8516379390e+02 2.2807303536e+02 1.2509982039e+02 2.0900e+01 0.0000e+00
 -1000101  2    1    2    0    0 +3.6791465427e+01 +2.6983363414e+01 -1.7100687313e+02 2.1673734105e+02 1.2510000207e+02 1.8888e+01 0.0000e+00
       11  1    3    3    0    0 +6.5317802625e-02 -1.4944967348e-02 -3.8698229420e-02 7.7379464136e-02 5.1100000000e-04 0.0000e+00 1.0000e+00
      255  1    3    3    0    0 -3.6856783230e+01 -2.6968418447e+01 -1.8512509567e+02 2.2799565590e+02 1.2500000000e+02 0.0000e+00 0.0000e+00
      -11  1    4    4    0    0 +8.4218095472e-02 -3.1882749221e-02 -3.7342676273e-02 9.7488121816e-02 5.1100000000e-04 0.0000e+00 -1.0000e+00
      255  1    4    4    0    0 +3.6707247332e+01 +2.7015246163e+01 -1.7096953045e+02 2.1663985293e+02 1.2500000000e+02 0.0000e+00 0.0000e+00
<mgrwt>
<rscale>  0 0.26645586E+03</rscale>
<asrwt>0</asrwt>
<pdfrwt beam="1">  1        2 0.61613924E-01 0.26645586E+03</pdfrwt>
<pdfrwt beam="2">  1       -2 0.68184394E-02 0.26645586E+03</pdfrwt>
<totfact> 0.95957988E+03</totfact>
</mgrwt>
</event>
<event>
 8      1 +1.6198320e-01 3.75508900e+02 7.81860800e-03 1.05260600e-01
       -1 -1    0    0    0  501 -0.0000000000e+00 +0.0000000000e+00 +1.7891502902e+01 1.7891503612e+01 5.0400000000e-03 0.0000e+00 -1.0000e+00
        1 -1    0    0  501    0 +0.0000000000e+00 -0.0000000000e+00 -1.9703062085e+03 1.9703062085e+03 5.0400000000e-03 0.0000e+00 1.0000e+00
  1000101  2    1    2    0    0 -6.5975364181e+01 -1.1796193256e+02 -1.1695866749e+03 1.1839977982e+03 1.2510007871e+02 2.9543e+02 0.0000e+00
 -1000101  2    1    2    0    0 +6.5975364181e+01 +1.1796193256e+02 -7.8282803063e+02 8.0419991391e+02 1.2509999910e+02 1.0700e+02 0.0000e+00
       11  1    3    3    0    0 -1.6147244819e-01 -1.2501600133e-01 -1.4752044971e+00 1.4892719434e+00 5.1100000000e-04 0.0000e+00 1.0000e+00
      255  1    3    3    0    0 -6.5813891733e+01 -1.1783691656e+02 -1.1681114704e+03 1.1825085262e+03 1.2500000000e+02 0.0000e+00 0.0000e+00
      -11  1    4    4    0    0 -2.1777390011e-02 +1.6068941452e-01 -6.1981341310e-01 6.4067485578e-01 5.1100000000e-04 0.0000e+00 -1.0000e+00
      255  1    4    4    0    0 +6.5997141571e+01 +1.1780124315e+02 -7.8220821722e+02 8.0355923905e+02 1.2500000000e+02 0.0000e+00 0.0000e+00
<mgrwt>
<rscale>  0 0.37550893E+03</rscale>
<asrwt>0</asrwt>
<pdfrwt beam="1">  1        1 0.30312386E+00 0.37550893E+03</pdfrwt>
<pdfrwt beam="2">  1       -1 0.27525405E-02 0.37550893E+03</pdfrwt>
<totfact> 0.15018609E+03</totfact>
</mgrwt>
</event>
<event>
 8      1 +1.6198320e-01 2.87678100e+02 7.81860800e-03 1.09156800e-01
        2 -1    0    0  501    0 +0.0000000000e+00 +0.0000000000e+00 +4.4219647920e+01 4.4219647994e+01 2.5500000000e-03 0.0000e+00 1.0000e+00
       -2 -1    0    0    0  501 -0.0000000000e+00 -0.0000000000e+00 -4.6788420942e+02 4.6788420943e+02 2.5500000000e-03 0.0000e+00 -1.0000e+00
  1000101  2    1    2    0    0 -5.5741100813e+01 -6.9506471121e+00 -2.8910377959e+02 3.1997880373e+02 1.2510019043e+02 2.5571e+02 0.0000e+00
 -1000101  2    1    2    0    0 +5.5741100813e+01 +6.9506471121e+00 -1.3456078191e+02 1.9212505369e+02 1.2510016152e+02 5.2348e+01 0.0000e+00
       11  1    3    3    0    0 +5.1988401350e-02 -4.4653978864e-02 -9.7696660866e-02 1.1933846978e-01 5.1100000000e-04 0.0000e+00 1.0000e+00
      255  1    3    3    0    0 -5.5793089215e+01 -6.9059931333e+00 -2.8900608293e+02 3.1985946526e+02 1.2500000000e+02 0.0000e+00 0.0000e+00
      -11  1    4    4    0    0 +5.0167403616e-02 -7.8399348565e-02 -1.8179569952e-01 2.0423800754e-01 5.1100000000e-04 0.0000e+00 -1.0000e+00
      255  1    4    4    0    0 +5.5690933410e+01 +7.0290464607e+00 -1.3437898621e+02 1.9192081568e+02 1.2500000000e+02 0.0000e+00 0.0000e+00
<mgrwt>
<rscale>  0 0.28767812E+03</rscale>
<asrwt>0</asrwt>
<pdfrwt beam="1">  1        2 0.68030231E-02 0.28767812E+03</pdfrwt>
<pdfrwt beam="2">  1       -2 0.71982183E-01 0.28767812E+03</pdfrwt>
<totfact> 0.18820186E+03</totfact>
</mgrwt>
</event>
<event>
 8      1 +1.6198320e-01 4.91578500e+02 7.81860800e-03 1.01600100e-01
        2 -1    0    0  501    0 +0.0000000000e+00 +0.0000000000e+00 +7.0961962468e+02 7.0961962468e+02 2.5500000000e-03 0.0000e+00 1.0000e+00
       -2 -1    0    0    0  501 -0.0000000000e+00 -0.0000000000e+00 -8.5133427779e+01 8.5133427818e+01 2.5500000000e-03 0.0000e+00 -1.0000e+00
  1000101  2    1    2    0    0 -1.9788737313e+02 +2.1286248631e+01 +4.2826385617e+02 4.8854114263e+02 1.2509996291e+02 2.0285e+02 0.0000e+00
 -1000101  2    1    2    0    0 +1.9788737313e+02 -2.1286248631e+01 +1.9622234073e+02 3.0621190987e+02 1.2509999967e+02 4.7072e+00 0.0000e+00
       11  1    3    3    0    0 -3.2080083641e-01 -1.1004841087e-02 +5.2845348323e-01 6.1830221431e-01 5.1100000000e-04 0.0000e+00 1.0000e+00
      255  1    3    3    0    0 -1.9756657229e+02 +2.1297253472e+01 +4.2773540268e+02 4.8792284042e+02 1.2500000000e+02 0.0000e+00 0.0000e+00
      -11  1    4    4    0    0 +2.0159505645e-01 -9.3521716589e-02 +2.7694982948e-01 3.5508921052e-01 5.1100000000e-04 0.0000e+00 -1.0000e+00
      255  1    4    4    0    0 +1.9768577807e+02 -2.1192726915e+01 +1.9594539090e+02 3.0585682066e+02 1.2500000000e+02 0.0000e+00 0.0000e+00
<mgrwt>
<rscale>  0 0.49157848E+03</rscale>
<asrwt>0</asrwt>
<pdfrwt beam="1">  1        2 0.10917225E+00 0.49157848E+03</pdfrwt>
<pdfrwt beam="2">  1       -2 0.13097450E-01 0.49157848E+03</pdfrwt>
<totfact> 0.17730479E+03</totfact>
</mgrwt>
</event>
<event>
 8      1 +1.6198320e-01 5.28482500e+02 7.81860800e-03 1.00660100e-01
       -1 -1    0    0    0  501 -0.0000000000e+00 +0.0000000000e+00 +1.3212446651e+02 1.3212446661e+02 5.0400000000e-03 0.0000e+00 -1.0000e+00
        1 -1    0    0  501    0 +0.0000000000e+00 -0.0000000000e+00 -5.2846723331e+02 5.2846723333e+02 5.0400000000e-03 0.0000e+00 1.0000e+00
  1000101  2    1    2    0    0 +7.3957909343e+01 +9.1714074303e+01 +5.2735738725e+01 1.7975625669e+02 1.2509999960e+02 2.9625e+01 0.0000e+00
 -1000101  2    1    2    0    0 -7.3957909343e+01 -9.1714074303e+01 -4.4907850552e+02 4.8083544325e+02 1.2509986247e+02 1.5542e+01 0.0000e+00
       11  1    3    3    0    0 -1.0450552248e-02 +1.3980835698e-01 +1.5001724117e-02 1.4099965806e-01 5.1100000000e-04 0.0000e+00 1.0000e+00
      255  1    3    3    0    0 +7.3968359895e+01 +9.1574265946e+01 +5.2720737001e+01 1.7961525703e+02 1.2500000000e+02 0.0000e+00 0.0000e+00
      -11  1    4    4    0    0 +2.0409644952e-02 +2.2928352324e-02 -1.8757979017e-02 3.5977574203e-02 5.1100000000e-04 0.0000e+00 -1.0000e+00
      255  1    4    4    0    0 -7.3978318988e+01 -9.1737002655e+01 -4.4905974754e+02 4.8079946568e+02 1.2500000000e+02 0.0000e+00 0.0000e+00
<mgrwt>
<rscale>  0 0.52848255E+03</rscale>
<asrwt>0</asrwt>
<pdfrwt beam="1">  1        1 0.81302650E-01 0.52848255E+03</pdfrwt>
<pdfrwt beam="2">  1       -1 0.20326841E-01 0.52848255E+03</pdfrwt>
<totfact> 0.82182531E+02</totfact>
</mgrwt>
</event>
<event>
 8      1 +1.6198320e-01 5.39774100e+02 7.81860800e-03 1.00388900e-01
       -2 -1    0    0    0  501 -0.0000000000e+00 +0.0000000000e+00 +7.9450317671e+01 7.9450317712e+01 2.5500000000e-03 0.0000e+00 -1.0000e+00
        2 -1    0    0  501    0 +0.0000000000e+00 -0.0000000000e+00 -9.1678715129e+02 9.1678715130e+02 2.5500000000e-03 0.0000e+00 1.0000e+00
  1000101  2    1    2    0    0 +1.2954500217e+02 +1.2553425056e+02 -1.2890465931e+02 2.5457251072e+02 1.2509994553e+02 5.2381e+01 0.0000e+00
 -1000101  2    1    2    0    0 -1.2954500217e+02 -1.2553425056e+02 -7.0843217432e+02 7.4166495829e+02 1.2509999640e+02 4.4777e+00 0.0000e+00
       11  1    3    3    0    0 +8.8230920543e-02 -2.4841442148e-02 -2.7641327387e-02 9.5739734119e-02 5.1100000000e-04 0.0000e+00 1.0000e+00
      255  1    3    3    0    0 +1.2945677125e+02 +1.2555909201e+02 -1.2887701798e+02 2.5447677098e+02 1.2500000000e+02 0.0000e+00 0.0000e+00
      -11  1    4    4    0    0 +5.1519151489e-03 -1.0085035185e-01 -1.9967615510e-01 2.2375916458e-01 5.1100000000e-04 0.0000e+00 -1.0000e+00
      255  1    4    4    0    0 -1.2955015408e+02 -1.2543340021e+02 -7.0823249816e+02 7.4144119913e+02 1.2500000000e+02 0.0000e+00 0.0000e+00
<mgrwt>
<rscale>  0 0.53977414E+03</rscale>
<asrwt>0</asrwt>
<pdfrwt beam="1">  1        2 0.14104417E+00 0.53977414E+03</pdfrwt>
<pdfrwt beam="2">  1       -2 0.12223126E-01 0.53977414E+03</pdfrwt>
<totfact> 0.14185074E+03</totfact>
</mgrwt>
</event>
<event>
 8      1 +1.6198320e-01 3.50002200e+02 7.81860800e-03 1.06261400e-01
       -4 -1    0    0    0  501 -0.0000000000e+00 +0.0000000000e+00 +6.3261801221e+01 6.3274547756e+01 1.2700000000e+00 0.0000e+00 -1.0000e+00
        4 -1    0    0  501    0 +0.0000000000e+00 -0.0000000000e+00 -4.8404320263e+02 4.8404486870e+02 1.2700000000e+00 0.0000e+00 1.0000e+00
  1000101  2    1    2    0    0 +3.8631868932e+00 +9.8067002974e+01 -3.2469793441e+02 3.6153949691e+02 1.2509995174e+02 2.8820e+01 0.0000e+00
 -1000101  2    1    2    0    0 -3.8631868932e+00 -9.8067002974e+01 -9.6083466993e+01 1.8577991955e+02 1.2510029813e+02 2.0772e+02 0.0000e+00
       11  1    3    3    0    0 +3.7222762920e-02 +1.6402285109e-01 -5.1899480932e-01 5.4556842191e-01 5.1100000000e-04 0.0000e+00 1.0000e+00
      255  1    3    3    0    0 +3.8259641302e+00 +9.7902980123e+01 -3.2417893961e+02 3.6099392848e+02 1.2500000000e+02 0.0000e+00 0.0000e+00
      -11  1    4    4    0    0 +6.8723201803e-02 -1.3420876563e-01 -3.4189712791e-02 1.5460940729e-01 5.1100000000e-04 0.0000e+00 -1.0000e+00
      255  1    4    4    0    0 -3.9319100950e+00 -9.7932794208e+01 -9.6049277280e+01 1.8562531014e+02 1.2500000000e+02 0.0000e+00 0.0000e+00
<mgrwt>
<rscale>  0 0.35000222E+03</rscale>
<asrwt>0</asrwt>
<pdfrwt beam="1">  1        4 0.74469291E-01 0.35000222E+03</pdfrwt>
<pdfrwt beam="2">  1       -4 0.97336938E-02 0.35000222E+03</pdfrwt>
<totfact> 0.25385917E+02</totfact>
</mgrwt>
</event>
<event>
 8      1 +1.6198320e-01 4.52753700e+02 7.81860800e-03 1.02690400e-01
       -2 -1    0    0    0  501 -0.0000000000e+00 +0.0000000000e+00 +2.4859444433e+01 2.4859444564e+01 2.5500000000e-03 0.0000e+00 -1.0000e+00
        2 -1    0    0  501    0 +0.0000000000e+00 -0.0000000000e+00 -2.0614486670e+03 2.0614486670e+03 2.5500000000e-03 0.0000e+00 1.0000e+00
  1000101  2    1    2    0    0 -1.3968622162e+02 +7.7523583434e+01 -5.5578113832e+02 5.9166274791e+02 1.2509990828e+02 1.2898e+01 0.0000e+00
 -1000101  2    1    2    0    0 +1.3968622162e+02 -7.7523583434e+01 -1.4808080842e+03 1.4946453636e+03 1.2510009685e+02 3.9976e+01 0.0000e+00
       11  1    3    3    0    0 -1.2969571929e-01 +1.0654530687e-02 -6.6949592074e-01 6.8202606082e-01 5.1100000000e-04 0.0000e+00 1.0000e+00
      255  1    3    3    0    0 -1.3955652590e+02 +7.7512928903e+01 -5.5511164240e+02 5.9098072185e+02 1.2500000000e+02 0.0000e+00 0.0000e+00
      -11  1    4    4    0    0 -2.6683843813e-02 -5.1029524867e-02 -6.4321827785e-01 6.4579102968e-01 5.1100000000e-04 0.0000e+00 -1.0000e+00
      255  1    4    4    0    0 +1.3971290546e+02 -7.7472553909e+01 -1.4801648660e+03 1.4939995726e+03 1.2500000000e+02 0.0000e+00 0.0000e+00
<mgrwt>
<rscale>  0 0.45275366E+03</rscale>
<asrwt>0</asrwt>
<pdfrwt beam="1">  1        2 0.31714581E+00 0.45275366E+03</pdfrwt>
<pdfrwt beam="2">  1       -2 0.38245316E-02 0.45275366E+03</pdfrwt>
<totfact> 0.20055721E+03</totfact>
</mgrwt>
</event>
<event>
 8      1 +1.6198320e-01 3.45706600e+02 7.81860800e-03 1.06439100e-01
        3 -1    0    0  501    0 +0.0000000000e+00 +0.0000000000e+00 +7.6037224790e+02 7.6037225461e+02 1.0100000000e-01 0.0000e+00 1.0000e+00
       -3 -1    0    0    0  501 -0.0000000000e+00 -0.0000000000e+00 -3.9294177969e+01 3.9294307772e+01 1.0100000000e-01 0.0000e+00 -1.0000e+00
  1000101  2    1    2    0    0 +2.8396184001e+01 -6.3048683641e+00 +9.2954132015e+01 1.5854579691e+02 1.2510077709e+02 6.9780e+01 0.0000e+00
 -1000101  2    1    2    0    0 -2.8396184001e+01 +6.3048683641e+00 +6.2812393792e+02 6.4112076547e+02 1.2510019944e+02 2.3144e+02 0.0000e+00
       11  1    3    3    0    0 -6.9848257094e-02 -2.9158296069e-03 +5.1282858061e-03 7.0098798265e-02 5.1100000000e-04 0.0000e+00 1.0000e+00
      255  1    3    3    0    0 +2.8466032259e+01 -6.3019525345e+00 +9.2949003729e+01 1.5847569811e+02 1.2500000000e+02 0.0000e+00 0.0000e+00
      -11  1    4    4    0    0 -3.8651838720e-02 +4.9882397753e-02 +8.9990656620e-02 1.0991268190e-01 5.1100000000e-04 0.0000e+00 -1.0000e+00
      255  1    4    4    0    0 -2.8357532163e+01 +6.2549859664e+00 +6.2803394726e+02 6.4101085279e+02 1.2500000000e+02 0.0000e+00 0.0000e+00
<mgrwt>
<rscale>  0 0.34570656E+03</rscale>
<asrwt>0</asrwt>
<pdfrwt beam="1">  1        3 0.11698036E+00 0.34570656E+03</pdfrwt>
<pdfrwt beam="2">  1       -3 0.60452685E-02 0.34570656E+03</pdfrwt>
<totfact> 0.27282175E+02</totfact>
</mgrwt>
</event>
<event>
 8      1 +1.6198320e-01 3.57321300e+02 7.81860800e-03 1.05965000e-01
       -4 -1    0    0    0  501 -0.0000000000e+00 +0.0000000000e+00 +2.4911955575e+02 2.4912279293e+02 1.2700000000e+00 0.0000e+00 -1.0000e+00
        4 -1    0    0  501    0 +0.0000000000e+00 -0.0000000000e+00 -1.2812252475e+02 1.2812881896e+02 1.2700000000e+00 0.0000e+00 1.0000e+00
  1000101  2    1    2    0    0 -4.9038077636e+01 +1.4267562177e+01 -6.2902473133e+01 1.4904705215e+02 1.2509998497e+02 1.6877e+01 0.0000e+00
 -1000101  2    1    2    0    0 +4.9038077636e+01 -1.4267562177e+01 +1.8389950413e+02 2.2820455974e+02 1.2509994835e+02 7.2055e+00 0.0000e+00
       11  1    3    3    0    0 -1.0678925750e-01 +8.6483744976e-02 -9.7215246000e-02 1.6832839582e-01 5.1100000000e-04 0.0000e+00 1.0000e+00
      255  1    3    3    0    0 -4.8931288379e+01 +1.4181078432e+01 -6.2805257887e+01 1.4887872375e+02 1.2500000000e+02 0.0000e+00 0.0000e+00
      -11  1    4    4    0    0 -6.6023018350e-03 +2.4665158498e-02 +2.6041665519e-01 2.6166592414e-01 5.1100000000e-04 0.0000e+00 -1.0000e+00
      255  1    4    4    0    0 +4.9044679938e+01 -1.4292227335e+01 +1.8363908748e+02 2.2794289382e+02 1.2500000000e+02 0.0000e+00 0.0000e+00
<mgrwt>
<rscale>  0 0.35732128E+03</rscale>
<asrwt>0</asrwt>
<pdfrwt beam="1">  1        4 0.19711891E-01 0.35732128E+03</pdfrwt>
<pdfrwt beam="2">  1       -4 0.38326818E-01 0.35732128E+03</pdfrwt>
<totfact> 0.29541546E+02</totfact>
</mgrwt>
</event>
<event>
 8      1 +1.6198320e-01 2.61019200e+02 7.81860800e-03 1.10653200e-01
        1 -1    0    0  501    0 +0.0000000000e+00 +0.0000000000e+00 +1.2086211510e+03 1.2086211511e+03 5.0400000000e-03 0.0000e+00 1.0000e+00
       -1 -1    0    0    0  501 -0.0000000000e+00 -0.0000000000e+00 -1.4092714718e+01 1.4092715620e+01 5.0400000000e-03 0.0000e+00 -1.0000e+00
  1000101  2    1    2    0    0 -2.0533663108e+01 -2.1660730282e+01 +4.9336820173e+02 5.0985587674e+02 1.2510001606e+02 1.4454e+02 0.0000e+00
 -1000101  2    1    2    0    0 +2.0533663108e+01 +2.1660730282e+01 +7.0116023460e+02 7.1285798993e+02 1.2510004264e+02 1.4538e+02 0.0000e+00
       11  1    3    3    0    0 -2.2991237808e-02 -7.9283047517e-02 +7.5158706927e-01 7.5610699140e-01 5.1100000000e-04 0.0000e+00 1.0000e+00
      255  1    3    3    0    0 -2.0510671871e+01 -2.1581447234e+01 +4.9261661466e+02 5.0909976975e+02 1.2500000000e+02 0.0000e+00 0.0000e+00
      -11  1    4    4    0    0 +1.0235701576e-01 +7.2611757753e-02 +7.3776526251e-01 7.4836306010e-01 5.1100000000e-04 0.0000e+00 -1.0000e+00
      255  1    4    4    0    0 +2.0431306093e+01 +2.1588118524e+01 +7.0042246933e+02 7.1210962687e+02 1.2500000000e+02 0.0000e+00 0.0000e+00
<mgrwt>
<rscale>  0 0.26101918E+03</rscale>
<asrwt>0</asrwt>
<pdfrwt beam="1">  1        1 0.18594166E+00 0.26101918E+03</pdfrwt>
<pdfrwt beam="2">  1       -1 0.21681107E-02 0.26101918E+03</pdfrwt>
<totfact> 0.68655145E+03</totfact>
</mgrwt>
</event>
<event>
 8      1 +1.6198320e-01 4.15065400e+02 7.81860800e-03 1.03868400e-01
       -2 -1    0    0    0  501 -0.0000000000e+00 +0.0000000000e+00 +4.4015336491e+01 4.4015336565e+01 2.5500000000e-03 0.0000e+00 -1.0000e+00
        2 -1    0    0  501    0 +0.0000000000e+00 -0.0000000000e+00 -9.7851844143e+02 9.7851844144e+02 2.5500000000e-03 0.0000e+00 1.0000e+00
  1000101  2    1    2    0    0 +7.0024199049e+01 -1.4853158734e+02 -4.1471447818e+02 4.6325277386e+02 1.2510001274e+02 1.1370e+02 0.0000e+00
 -1000101  2    1    2    0    0 -7.0024199049e+01 +1.4853158734e+02 -5.1978862676e+02 5.5928100414e+02 1.2509997680e+02 2.6169e+00 0.0000e+00
       11  1    3    3    0    0 +3.6577134400e-02 -1.2887380447e-01 -5.5182168825e-01 5.6785013955e-01 5.1100000000e-04 0.0000e+00 1.0000e+00
      255  1    3    3    0    0 +6.9987621915e+01 -1.4840271353e+02 -4.1416265649e+02 4.6268492372e+02 1.2500000000e+02 0.0000e+00 0.0000e+00
      -11  1    4    4    0    0 -2.2115155643e-02 +1.7249978037e-01 -2.6234356115e-01 3.1475333125e-01 5.1100000000e-04 0.0000e+00 -1.0000e+00
      255  1    4    4    0    0 -7.0002083894e+01 +1.4835908756e+02 -5.1952628320e+02 5.5896625081e+02 1.2500000000e+02 0.0000e+00 0.0000e+00
<mgrwt>
<rscale>  0 0.41506539E+03</rscale>
<asrwt>0</asrwt>
<pdfrwt beam="1">  1        2 0.15054128E+00 0.41506539E+03</pdfrwt>
<pdfrwt beam="2">  1       -2 0.67715910E-02 0.41506539E+03</pdfrwt>
<totfact> 0.33355459E+03</totfact>
</mgrwt>
</event>
<event>
 8      1 +1.6198320e-01 2.77326100e+02 7.81860800e-03 1.09715800e-01
        1 -1    0    0  501    0 +0.0000000000e+00 +0.0000000000e+00 +6.8247631355e+02 6.8247631357e+02 5.0400000000e-03 0.0000e+00 -1.0000e+00
       -1 -1    0    0    0  501 -0.0000000000e+00 -0.0000000000e+00 -2.8173058403e+01 2.8173058853e+01 5.0400000000e-03 0.0000e+00 1.0000e+00
  1000101  2    1    2    0    0 +2.1871152303e+01 -5.9726788022e+00 +4.6897996473e+02 4.8590761378e+02 1.2509988653e+02 4.2465e+01 0.0000e+00
 -1000101  2    1    2    0    0 -2.1871152303e+01 +5.9726788022e+00 +1.8532329041e+02 2.2474175864e+02 1.2510042331e+02 8.2498e+01 0.0000e+00
       11  1    3    3    0    0 +9.5833680202e-02 -6.0089032364e-02 +5.5594233786e-01 5.6733317391e-01 5.1100000000e-04 0.0000e+00 1.0000e+00
      255  1    3    3    0    0 +2.1775318623e+01 -5.9125897698e+00 +4.6842402239e+02 4.8534028060e+02 1.2500000000e+02 0.0000e+00 0.0000e+00
      -11  1    4    4    0    0 -8.4922085896e-03 +3.8816760395e-02 +3.1493661274e-01 3.1743375633e-01 5.1100000000e-04 0.0000e+00 -1.0000e+00
      255  1    4    4    0    0 -2.1862660095e+01 +5.9338620418e+00 +1.8500835380e+02 2.2442432489e+02 1.2500000000e+02 0.0000e+00 0.0000e+00
<mgrwt>
<rscale>  0 0.27732613E+03</rscale>
<asrwt>0</asrwt>
<pdfrwt beam="1">  1        1 0.10499635E+00 0.27732613E+03</pdfrwt>
<pdfrwt beam="2">  1       -1 0.43343169E-02 0.27732613E+03</pdfrwt>
<totfact> 0.63648151E+03</totfact>
</mgrwt>
</event>
<event>
 8      1 +1.6198320e-01 2.68214700e+02 7.81860800e-03 1.10230600e-01
        1 -1    0    0  501    0 +0.0000000000e+00 +0.0000000000e+00 +2.8096246610e+02 2.8096246615e+02 5.0400000000e-03 0.0000e+00 1.0000e+00
       -1 -1    0    0    0  501 -0.0000000000e+00 -0.0000000000e+00 -6.4011336998e+01 6.4011337196e+01 5.0400000000e-03 0.0000e+00 -1.0000e+00
  1000101  2    1    2    0    0 +2.9586856048e+01 -3.0843577597e+00 +1.5744992724e+02 2.0328644331e+02 1.2509997254e+02 2.9713e+00 0.0000e+00
 -1000101  2    1    2    0    0 -2.9586856048e+01 +3.0843577597e+00 +5.9501201859e+01 1.4168736004e+02 1.2510003860e+02 2.5918e+02 0.0000e+00
       11  1    3    3    0    0 -7.0472537269e-02 -4.1718718664e-04 +3.6025900915e-02 7.9149726550e-02 5.1100000000e-04 0.0000e+00 1.0000e+00
      255  1    3    3    0    0 +2.9657328585e+01 -3.0839405725e+00 +1.5741390134e+02 2.0320729358e+02 1.2500000000e+02 0.0000e+00 0.0000e+00
      -11  1    4    4    0    0 -2.1551429714e-02 -9.6366184109e-02 +2.9332558493e-02 1.0301245396e-01 5.1100000000e-04 0.0000e+00 -1.0000e+00
      255  1    4    4    0    0 -2.9565304618e+01 +3.1807239438e+00 +5.9471869301e+01 1.4158434758e+02 1.2500000000e+02 0.0000e+00 0.0000e+00
<mgrwt>
<rscale>  0 0.26821471E+03</rscale>
<asrwt>0</asrwt>
<pdfrwt beam="1">  1        1 0.43224996E-01 0.26821471E+03</pdfrwt>
<pdfrwt beam="2">  1       -1 0.98478978E-02 0.26821471E+03</pdfrwt>
<totfact> 0.58961583E+03</totfact>
</mgrwt>
</event>
<event>
 8      1 +1.6198320e-01 3.94786400e+02 7.81860800e-03 1.04560000e-01
       -2 -1    0    0    0  501 -0.0000000000e+00 +0.0000000000e+00 +1.3665519237e+02 1.3665519240e+02 2.5500000000e-03 0.0000e+00 -1.0000e+00
        2 -1    0    0  501    0 +0.0000000000e+00 -0.0000000000e+00 -2.8512692573e+02 2.8512692574e+02 2.5500000000e-03 0.0000e+00 1.0000e+00
  1000101  2    1    2    0    0 -2.4604512841e+01 -9.0666182871e+01 +5.4362708856e+01 1.6562312191e+02 1.2509986263e+02 1.5426e+02 0.0000e+00
 -1000101  2    1    2    0    0 +2.4604512841e+01 +9.0666182871e+01 -2.0283444222e+02 2.5615899623e+02 1.2509948693e+02 1.2397e+01 0.0000e+00
       11  1    3    3    0    0 -7.1863061730e-02 -1.7497128476e-01 +2.8930995870e-02 1.9135441927e-01 5.1100000000e-04 0.0000e+00 1.0000e+00
      255  1    3    3    0    0 -2.4532649779e+01 -9.0491211586e+01 +5.4333777860e+01 1.6543176749e+02 1.2500000000e+02 0.0000e+00 0.0000e+00
      -11  1    4    4    0    0 +1.1566038172e-01 +7.9756271507e-02 -2.3781182093e-01 2.7621207439e-01 5.1100000000e-04 0.0000e+00 -1.0000e+00
      255  1    4    4    0    0 +2.4488852459e+01 +9.0586426600e+01 -2.0259663039e+02 2.5588278415e+02 1.2500000000e+02 0.0000e+00 0.0000e+00
<mgrwt>
<rscale>  0 0.39478640E+03</rscale>
<asrwt>0</asrwt>
<pdfrwt beam="1">  1        2 0.43865681E-01 0.39478640E+03</pdfrwt>
<pdfrwt beam="2">  1       -2 0.21023876E-01 0.39478640E+03</pdfrwt>
<totfact> 0.22418259E+03</totfact>
</mgrwt>
</event>
<event>
 8      1 +1.6198320e-01 3.42657600e+02 7.81860800e-03 1.06567000e-01
        3 -1    0    0  501    0 +0.0000000000e+00 +0.0000000000e+00 +2.4925130596e+01 2.4925335228e+01 1.0100000000e-01 0.0000e+00 1.0000e+00
       -3 -1    0    0    0  501 -0.0000000000e+00 -0.0000000000e+00 -1.1776641106e+03 1.1776641150e+03 1.0100000000e-01 0.0000e+00 -1.0000e+00
  1000101  2    1    2    0    0 -1.8145352464e+00 -1.7123996746e+01 -1.6999821928e+02 2.1176861218e+02 1.2510006692e+02 7.5040e+01 0.0000e+00
 -1000101  2    1    2    0    0 +1.8145352464e+00 +1.7123996746e+01 -9.8274076076e+02 9.9082083802e+02 1.2509998556e+02 8.4732e+01 0.0000e+00
       11  1    3    3    0    0 -7.7738630780e-02 +5.1463035696e-02 -1.2527498531e-01 1.5615960369e-01 5.1100000000e-04 0.0000e+00 1.0000e+00
      255  1    3    3    0    0 -1.7367966156e+00 -1.7175459782e+01 -1.6987294429e+02 2.1161245257e+02 1.2500000000e+02 0.0000e+00 0.0000e+00
      -11  1    4    4    0    0 -3.8740458723e-02 -6.7981517392e-02 -1.0310883313e+00 1.0340530537e+00 5.1100000000e-04 0.0000e+00 -1.0000e+00
      255  1    4    4    0    0 +1.8532757051e+00 +1.7191978263e+01 -9.8170967243e+02 9.8978678497e+02 1.2500000000e+02 0.0000e+00 0.0000e+00
<mgrwt>
<rscale>  0 0.34265760E+03</rscale>
<asrwt>0</asrwt>
<pdfrwt beam="1">  1        3 0.38346525E-02 0.34265760E+03</pdfrwt>
<pdfrwt beam="2">  1       -3 0.18117907E+00 0.34265760E+03</pdfrwt>
<totfact> 0.18605160E+02</totfact>
</mgrwt>
</event>
<event>
 8      1 +1.6198320e-01 3.08710700e+02 7.81860800e-03 1.08096600e-01
       -2 -1    0    0    0  501 -0.0000000000e+00 +0.0000000000e+00 +1.3443126439e+01 1.3443126680e+01 2.5500000000e-03 0.0000e+00 -1.0000e+00
        2 -1    0    0  501    0 +0.0000000000e+00 -0.0000000000e+00 -1.7723233645e+03 1.7723233645e+03 2.5500000000e-03 0.0000e+00 1.0000e+00
  1000101  2    1    2    0    0 +7.3064629913e+01 -2.0521789810e+01 -5.9510791787e+02 6.1283187640e+02 1.2509952365e+02 1.3339e+02 0.0000e+00
 -1000101  2    1    2    0    0 -7.3064629913e+01 +2.0521789810e+01 -1.1637723202e+03 1.1729346148e+03 1.2510001325e+02 7.8137e+01 0.0000e+00
       11  1    3    3    0    0 +1.4550669926e-01 -8.6714685666e-02 -7.4492151975e-01 7.6393714922e-01 5.1100000000e-04 0.0000e+00 1.0000e+00
      255  1    3    3    0    0 +7.2919123214e+01 -2.0435075124e+01 -5.9436299635e+02 6.1206793925e+02 1.2500000000e+02 0.0000e+00 0.0000e+00
      -11  1    4    4    0    0 -8.8681595258e-02 +2.8903079474e-02 -2.9516790004e-01 3.0955478300e-01 5.1100000000e-04 0.0000e+00 -1.0000e+00
      255  1    4    4    0    0 -7.2975948318e+01 +2.0492886731e+01 -1.1634771523e+03 1.1726250600e+03 1.2500000000e+02 0.0000e+00 0.0000e+00
<mgrwt>
<rscale>  0 0.30871066E+03</rscale>
<asrwt>0</asrwt>
<pdfrwt beam="1">  1        2 0.27266495E+00 0.30871066E+03</pdfrwt>
<pdfrwt beam="2">  1       -2 0.20681747E-02 0.30871066E+03</pdfrwt>
<totfact> 0.72099671E+03</totfact>
</mgrwt>
</event>
<event>
 8      1 +1.6198320e-01 3.49200200e+02 7.81860800e-03 1.06294400e-01
       -2 -1    0    0    0  501 -0.0000000000e+00 +0.0000000000e+00 +9.4514057872e+01 9.4514057906e+01 2.5500000000e-03 0.0000e+00 -1.0000e+00
        2 -1    0    0  501    0 +0.0000000000e+00 -0.0000000000e+00 -3.2254674156e+02 3.2254674157e+02 2.5500000000e-03 0.0000e+00 1.0000e+00
  1000101  2    1    2    0    0 +4.2944206503e+01 +4.2558954436e+01 -2.4029787752e+02 2.7757622941e+02 1.2510005484e+02 3.8182e+02 0.0000e+00
 -1000101  2    1    2    0    0 -4.2944206503e+01 -4.2558954436e+01 +1.2265193830e+01 1.3948457006e+02 1.2510012323e+02 6.0430e+01 0.0000e+00
       11  1    3    3    0    0 +2.7127699864e-02 +1.3643996345e-01 -2.7776074906e-01 3.1064943355e-01 5.1100000000e-04 0.0000e+00 1.0000e+00
      255  1    3    3    0    0 +4.2917078803e+01 +4.2422514473e+01 -2.4002011677e+02 2.7726557998e+02 1.2500000000e+02 0.0000e+00 0.0000e+00
      -11  1    4    4    0    0 -1.4014831857e-01 -4.7200683162e-02 +1.3588191417e-02 1.4850708992e-01 5.1100000000e-04 0.0000e+00 -1.0000e+00
      255  1    4    4    0    0 -4.2804058184e+01 -4.2511753753e+01 +1.2251605639e+01 1.3933606297e+02 1.2500000000e+02 0.0000e+00 0.0000e+00
<mgrwt>
<rscale>  0 0.34920024E+03</rscale>
<asrwt>0</asrwt>
<pdfrwt beam="1">  1        2 0.49622575E-01 0.34920024E+03</pdfrwt>
<pdfrwt beam="2">  1       -2 0.14540624E-01 0.34920024E+03</pdfrwt>
<totfact> 0.36548620E+03</totfact>
</mgrwt>
</event>
<event>
 8      1 +1.6198320e-01 4.69336800e+02 7.81860800e-03 1.02210800e-01
       -2 -1    0    0    0  501 -0.0000000000e+00 +0.0000000000e+00 +2.5625621175e+01 2.5625621301e+01 2.5500000000e-03 0.0000e+00 -1.0000e+00
        2 -1    0    0  501    0 +0.0000000000e+00 -0.0000000000e+00 -2.1489917110e+03 2.1489917110e+03 2.5500000000e-03 0.0000e+00 1.0000e+00
  1000101  2    1    2    0    0 -1.7925605800e+01 +1.1338222320e+02 -1.8122694992e+03 1.8202053873e+03 1.2510019392e+02 2.7382e+02 0.0000e+00
 -1000101  2    1    2    0    0 +1.7925605800e+01 -1.1338222320e+02 -3.1109659064e+02 3.5441194497e+02 1.2509948900e+02 3.9096e+02 0.0000e+00
       11  1    3    3    0    0 +1.9599410217e-02 +1.5914343404e-01 -2.7285548530e+00 2.7332622663e+00 5.1100000000e-04 0.0000e+00 1.0000e+00
      255  1    3    3    0    0 -1.7945205210e+01 +1.1322307976e+02 -1.8095409443e+03 1.8174721250e+03 1.2500000000e+02 0.0000e+00 0.0000e+00
      -11  1    4    4    0    0 -6.2945525466e-02 -4.3567427842e-02 -5.5434872299e-02 9.4517438249e-02 5.1100000000e-04 0.0000e+00 -1.0000e+00
      255  1    4    4    0    0 +1.7988551325e+01 -1.1333865577e+02 -3.1104115576e+02 3.5431742753e+02 1.2500000000e+02 0.0000e+00 0.0000e+00
<mgrwt>
<rscale>  0 0.46933676E+03</rscale>
<asrwt>0</asrwt>
<pdfrwt beam="1">  1        2 0.33061397E+00 0.46933676E+03</pdfrwt>
<pdfrwt beam="2">  1       -2 0.39424050E-02 0.46933676E+03</pdfrwt>
<totfact> 0.17159977E+03</totfact>
</mgrwt>
</event>
<event>
 8      1 +1.6198320e-01 2.99883100e+02 7.81860800e-03 1.08529900e-01
        1 -1    0    0  501    0 +0.0000000000e+00 +0.0000000000e+00 +2.3437143816e+03 2.3437143816e+03 5.0400000000e-03 0.0000e+00 -1.0000e+00
       -1 -1    0    0    0  501 -0.0000000000e+00 -0.0000000000e+00 -9.5926663502e+00 9.5926676743e+00 5.0400000000e-03 0.0000e+00 1.0000e+00
  1000101  2    1    2    0    0 -6.4282822437e+01 -3.2663176433e+01 +8.4991773273e+02 8.6209590386e+02 1.2510008267e+02 6.0740e+01 0.0000e+00
 -1000101  2    1    2    0    0 +6.4282822437e+01 +3.2663176433e+01 +1.4842039825e+03 1.4912111454e+03 1.2510017645e+02 9.1024e+01 0.0000e+00
       11  1    3    3    0    0 -8.9908316688e-04 -1.1094923266e-01 +7.5878200198e-01 7.6685130777e-01 5.1100000000e-04 0.0000e+00 1.0000e+00
      255  1    3    3    0    0 -6.4281923354e+01 -3.2552227200e+01 +8.4915895073e+02 8.6132905256e+02 1.2500000000e+02 0.0000e+00 0.0000e+00
      -11  1    4    4    0    0 +1.4889125417e-01 +7.5290343345e-02 +2.0887886228e+00 2.0954415795e+00 5.1100000000e-04 0.0000e+00 -1.0000e+00
      255  1    4    4    0    0 +6.4133931183e+01 +3.2587886089e+01 +1.4821151939e+03 1.4891157038e+03 1.2500000000e+02 0.0000e+00 0.0000e+00
<mgrwt>
<rscale>  0 0.29988312E+03</rscale>
<asrwt>0</asrwt>
<pdfrwt beam="1">  1        1 0.36057159E+00 0.29988312E+03</pdfrwt>
<pdfrwt beam="2">  1       -1 0.14757943E-02 0.29988312E+03</pdfrwt>
<totfact> 0.21475916E+03</totfact>
</mgrwt>
</event>
<event>
 8      1 +1.6198320e-01 2.84807700e+02 7.81860800e-03 1.09309200e-01
        1 -1    0    0  501    0 +0.0000000000e+00 +0.0000000000e+00 +2.1120147590e+02 2.1120147596e+02 5.0400000000e-03 0.0000e+00 1.0000e+00
       -1 -1    0    0    0  501 -0.0000000000e+00 -0.0000000000e+00 -9.6016649678e+01 9.6016649810e+01 5.0400000000e-03 0.0000e+00 -1.0000e+00
  1000101  2    1    2    0    0 -5.5056351259e+01 -3.8956437285e+01 +6.7242049950e+01 1.5722700937e+02 1.2510009343e+02 1.2302e+02 0.0000e+00
 -1000101  2    1    2    0    0 +5.5056351259e+01 +3.8956437285e+01 +4.7942776277e+01 1.4999111640e+02 1.2510003750e+02 3.1540e+01 0.0000e+00
       11  1    3    3    0    0 -1.3433851735e-01 -8.2984708639e-02 +1.2114862090e-01 1.9902398996e-01 5.1100000000e-04 0.0000e+00 1.0000e+00
      255  1    3    3    0    0 -5.4922012741e+01 -3.8873452577e+01 +6.7120901329e+01 1.5702798538e+02 1.2500000000e+02 0.0000e+00 0.0000e+00
      -11  1    4    4    0    0 +1.0204031423e-01 +1.2232552259e-01 +2.9128549406e-02 1.6193978115e-01 5.1100000000e-04 0.0000e+00 -1.0000e+00
      255  1    4    4    0    0 +5.4954310944e+01 +3.8834111763e+01 +4.7913647728e+01 1.4982917662e+02 1.2500000000e+02 0.0000e+00 0.0000e+00
<mgrwt>
<rscale>  0 0.28480771E+03</rscale>
<asrwt>0</asrwt>
<pdfrwt beam="1">  1        1 0.32492534E-01 0.28480771E+03</pdfrwt>
<pdfrwt beam="2">  1       -1 0.14771793E-01 0.28480771E+03</pdfrwt>
<totfact> 0.44850538E+03</totfact>
</mgrwt>
</event>
<event>
 8      1 +1.6198320e-01 3.13134900e+02 7.81860800e-03 1.07885300e-01
        2 -1    0    0  501    0 +0.0000000000e+00 +0.0000000000e+00 +1.5944927313e+02 1.5944927315e+02 2.5500000000e-03 0.0000e+00 1.0000e+00
       -2 -1    0    0    0  501 -0.0000000000e+00 -0.0000000000e+00 -1.5373770254e+02 1.5373770256e+02 2.5500000000e-03 0.0000e+00 -1.0000e+00
  1000101  2    1    2    0    0 +9.7916569640e+00 +4.9627553393e+01 -7.6558848143e+01 1.5514521056e+02 1.2509999412e+02 4.6396e+02 0.0000e+00
 -1000101  2    1    2    0    0 -9.7916569640e+00 -4.9627553393e+01 +8.2270418733e+01 1.5804176515e+02 1.2509998853e+02 2.6217e+01 0.0000e+00
       11  1    3    3    0    0 +5.3856477298e-02 +3.6167577635e-03 +3.8361669325e-02 6.6222955825e-02 5.1100000000e-04 0.0000e+00 1.0000e+00
      255  1    3    3    0    0 +9.7378004867e+00 +4.9623936635e+01 -7.6597209812e+01 1.5507898760e+02 1.2500000000e+02 0.0000e+00 0.0000e+00
      -11  1    4    4    0    0 +2.4706140568e-02 +6.1708849687e-02 +2.3845675586e-02 7.0620484828e-02 5.1100000000e-04 0.0000e+00 -1.0000e+00
      255  1    4    4    0    0 -9.8163631046e+00 -4.9689262242e+01 +8.2246573057e+01 1.5797114466e+02 1.2500000000e+02 0.0000e+00 0.0000e+00
<mgrwt>
<rscale>  0 0.31313489E+03</rscale>
<asrwt>0</asrwt>
<pdfrwt beam="1">  1        2 0.24530657E-01 0.31313489E+03</pdfrwt>
<pdfrwt beam="2">  1       -2 0.23651954E-01 0.31313489E+03</pdfrwt>
<totfact> 0.34472137E+03</totfact>
</mgrwt>
</event>
<event>
 8      1 +1.6198320e-01 3.19220100e+02 7.81860800e-03 1.07600900e-01
        1 -1    0    0  501    0 +0.0000000000e+00 +0.0000000000e+00 +1.9377584777e+03 1.9377584777e+03 5.0400000000e-03 0.0000e+00 1.0000e+00
       -1 -1    0    0    0  501 -0.0000000000e+00 -0.0000000000e+00 -1.3146826738e+01 1.3146827704e+01 5.0400000000e-03 0.0000e+00 -1.0000e+00
  1000101  2    1    2    0    0 +4.4326995459e+01 -5.5025906529e+01 +1.3871587905e+03 1.3945795965e+03 1.2509999228e+02 5.4153e+01 0.0000e+00
 -1000101  2    1    2    0    0 -4.4326995459e+01 +5.5025906529e+01 +5.3745286048e+02 5.5632570890e+02 1.2509989701e+02 1.1817e+02 0.0000e+00
       11  1    3    3    0    0 +3.5118775545e-02 -1.4922645642e-01 +1.7196552970e+00 1.7264751563e+00 5.1100000000e-04 0.0000e+00 1.0000e+00
      255  1    3    3    0    0 +4.4291876683e+01 -5.4876680072e+01 +1.3854391352e+03 1.3928531213e+03 1.2500000000e+02 0.0000e+00 0.0000e+00
      -11  1    4    4    0    0 +2.3077173924e-02 +6.2517151837e-02 +8.0180302862e-02 1.0425973489e-01 5.1100000000e-04 0.0000e+00 -1.0000e+00
      255  1    4    4    0    0 -4.4350072632e+01 +5.4963389377e+01 +5.3737268018e+02 5.5622144917e+02 1.2500000000e+02 0.0000e+00 0.0000e+00
<mgrwt>
<rscale>  0 0.31922015E+03</rscale>
<asrwt>0</asrwt>
<pdfrwt beam="1">  1        1 0.29811682E+00 0.31922015E+03</pdfrwt>
<pdfrwt beam="2">  1       -1 0.20225879E-02 0.31922015E+03</pdfrwt>
<totfact> 0.24938073E+03</totfact>
</mgrwt>
</event>
<event>
 8      1 +1.6198320e-01 2.59388200e+02 7.81860800e-03 1.10751100e-01
        2 -1    0    0  501    0 +0.0000000000e+00 +0.0000000000e+00 +4.5902787881e+01 4.5902787952e+01 2.5500000000e-03 0.0000e+00 1.0000e+00
       -2 -1    0    0    0  501 -0.0000000000e+00 -0.0000000000e+00 -3.6643864394e+02 3.6643864395e+02 2.5500000000e-03 0.0000e+00 -1.0000e+00
  1000101  2    1    2    0    0 -4.1886678043e+00 -2.7778182454e+01 -1.2922326931e+02 1.8203795693e+02 1.2509992835e+02 1.6656e+02 0.0000e+00
 -1000101  2    1    2    0    0 +4.1886678043e+00 +2.7778182454e+01 -1.9131258675e+02 2.3030347497e+02 1.2510000950e+02 2.1686e+00 0.0000e+00
       11  1    3    3    0    0 +7.4515494492e-02 -1.6186192416e-02 -1.0710124617e-02 7.7003374182e-02 5.1100000000e-04 0.0000e+00 1.0000e+00
      255  1    3    3    0    0 -4.2631832988e+00 -2.7761996261e+01 -1.2921255918e+02 1.8196095356e+02 1.2500000000e+02 0.0000e+00 0.0000e+00
      -11  1    4    4    0    0 +4.9245026817e-02 -5.6481773808e-02 -2.0876284033e-01 2.2180497754e-01 5.1100000000e-04 0.0000e+00 -1.0000e+00
      255  1    4    4    0    0 +4.1394227775e+00 +2.7834664228e+01 -1.9110382391e+02 2.3008166999e+02 1.2500000000e+02 0.0000e+00 0.0000e+00
<mgrwt>
<rscale>  0 0.25938817E+03</rscale>
<asrwt>0</asrwt>
<pdfrwt beam="1">  1        2 0.70619676E-02 0.25938817E+03</pdfrwt>
<pdfrwt beam="2">  1       -2 0.56375174E-01 0.25938817E+03</pdfrwt>
<totfact> 0.29862841E+03</totfact>
</mgrwt>
</event>
<event>
 8      1 +1.6198320e-01 3.71650100e+02 7.81860800e-03 1.05406400e-01
       -4 -1    0    0    0  501 -0.0000000000e+00 +0.0000000000e+00 +3.1149520658e+03 3.1149523247e+03 1.2700000000e+00 0.0000e+00 -1.0000e+00
        4 -1    0    0  501    0 +0.0000000000e+00 -0.0000000000e+00 -1.1048912003e+01 1.1121661587e+01 1.2700000000e+00 0.0000e+00 1.0000e+00
  1000101  2    1    2    0    0 +2.7367397156e+01 -1.3361594625e+02 +1.4115207612e+03 1.4236021476e+03 1.2510003892e+02 1.2986e+02 0.0000e+00
 -1000101  2    1    2    0    0 -2.7367397156e+01 +1.3361594625e+02 +1.6923823926e+03 1.7024718387e+03 1.2509997336e+02 3.0094e+02 0.0000e+00
       11  1    3    3    0    0 -7.8011338876e-02 -5.9388061961e-02 +6.5279683459e-01 6.6011868574e-01 5.1100000000e-04 0.0000e+00 1.0000e+00
      255  1    3    3    0    0 +2.7445408495e+01 -1.3355655819e+02 +1.4108679644e+03 1.4229420289e+03 1.2500000000e+02 0.0000e+00 0.0000e+00
      -11  1    4    4    0    0 +4.9991209258e-02 +2.9256284718e-02 +2.1874939699e-01 2.2628877790e-01 5.1100000000e-04 0.0000e+00 -1.0000e+00
      255  1    4    4    0    0 -2.7417388365e+01 +1.3358668997e+02 +1.6921636432e+03 1.7022455499e+03 1.2500000000e+02 0.0000e+00 0.0000e+00
<mgrwt>
<rscale>  0 0.37165008E+03</rscale>
<asrwt>0</asrwt>
<pdfrwt beam="1">  1        4 0.17054510E-02 0.37165008E+03</pdfrwt>
<pdfrwt beam="2">  1       -4 0.47922836E+00 0.37165008E+03</pdfrwt>
<totfact> 0.56232485E+00</totfact>
</mgrwt>
</event>
<event>
 8      1 +1.6198320e-01 3.70386400e+02 7.81860800e-03 1.05454500e-01
        2 -1    0    0  501    0 +0.0000000000e+00 +0.0000000000e+00 +1.7239230685e+03 1.7239230685e+03 2.5500000000e-03 0.0000e+00 1.0000e+00
       -2 -1    0    0    0  501 -0.0000000000e+00 -0.0000000000e+00 -1.9894464089e+01 1.9894464252e+01 2.5500000000e-03 0.0000e+00 -1.0000e+00
  1000101  2    1    2    0    0 -6.8555602889e+01 +1.1682204054e+02 +7.7056872965e+02 7.9232154992e+02 1.2510000603e+02 8.3877e+01 0.0000e+00
 -1000101  2    1    2    0    0 +6.8555602889e+01 -1.1682204054e+02 +9.3345987474e+02 9.5149598281e+02 1.2509999088e+02 3.7186e+01 0.0000e+00
       11  1    3    3    0    0 -1.3231405467e-01 +2.9196095768e-02 +5.5620387949e-01 5.7247046890e-01 5.1100000000e-04 0.0000e+00 1.0000e+00
      255  1    3    3    0    0 -6.8423288834e+01 +1.1679284444e+02 +7.7001252577e+02 7.9174907945e+02 1.2500000000e+02 0.0000e+00 0.0000e+00
      -11  1    4    4    0    0 +1.0812411046e-01 -5.4560702140e-02 +3.3353191164e-01 3.5484009171e-01 5.1100000000e-04 0.0000e+00 -1.0000e+00
      255  1    4    4    0    0 +6.8447478778e+01 -1.1676747983e+02 +9.3312634283e+02 9.5114114272e+02 1.2500000000e+02 0.0000e+00 0.0000e+00
<mgrwt>
<rscale>  0 0.37038642E+03</rscale>
<asrwt>0</asrwt>
<pdfrwt beam="1">  1        2 0.26521896E+00 0.37038642E+03</pdfrwt>
<pdfrwt beam="2">  1       -2 0.30606865E-02 0.37038642E+03</pdfrwt>
<totfact> 0.42664543E+03</totfact>
</mgrwt>
</event>
<event>
 8      1 +1.6198320e-01 4.06833900e+02 7.81860800e-03 1.04143900e-01
        2 -1    0    0  501    0 +0.0000000000e+00 +0.0000000000e+00 +1.9143530845e+02 1.9143530847e+02 2.5500000000e-03 0.0000e+00 1.0000e+00
       -2 -1    0    0    0  501 -0.0000000000e+00 -0.0000000000e+00 -2.1614845393e+02 2.1614845394e+02 2.5500000000e-03 0.0000e+00 -1.0000e+00
  1000101  2    1    2    0    0 -6.9676348296e+01 +7.9026530756e+00 -1.5688318155e+02 2.1255501775e+02 1.2510018977e+02 5.8461e+00 0.0000e+00
 -1000101  2    1    2    0    0 +6.9676348296e+01 -7.9026530756e+00 +1.3217003607e+02 1.9502874466e+02 1.2510014937e+02 2.1759e+02 0.0000e+00
       11  1    3    3    0    0 +2.7956490078e-02 +4.1585892607e-02 -1.6803945588e-01 1.7535242130e-01 5.1100000000e-04 0.0000e+00 1.0000e+00
      255  1    3    3    0    0 -6.9704304786e+01 +7.8610671830e+00 -1.5671514209e+02 2.1237966533e+02 1.2500000000e+02 0.0000e+00 0.0000e+00
      -11  1    4    4    0    0 +3.6831081203e-02 +9.3045502340e-02 +9.5081770210e-02 1.3803911835e-01 5.1100000000e-04 0.0000e+00 -1.0000e+00
      255  1    4    4    0    0 +6.9639517215e+01 -7.9956985780e+00 +1.3207495430e+02 1.9489070554e+02 1.2500000000e+02 0.0000e+00 0.0000e+00
<mgrwt>
<rscale>  0 0.40683385E+03</rscale>
<asrwt>0</asrwt>
<pdfrwt beam="1">  1        2 0.29451586E-01 0.40683385E+03</pdfrwt>
<pdfrwt beam="2">  1       -2 0.33253608E-01 0.40683385E+03</pdfrwt>
<totfact> 0.15242191E+03</totfact>
</mgrwt>
</event>
<event>
 8      1 +1.6198320e-01 3.24565600e+02 7.81860800e-03 1.07356700e-01
        2 -1    0    0  501    0 +0.0000000000e+00 +0.0000000000e+00 +8.0906797949e+02 8.0906797950e+02 2.5500000000e-03 0.0000e+00 1.0000e+00
       -2 -1    0    0    0  501 -0.0000000000e+00 -0.0000000000e+00 -3.2550671820e+01 3.2550671920e+01 2.5500000000e-03 0.0000e+00 -1.0000e+00
  1000101  2    1    2    0    0 -5.3178277324e+01 +8.5553293634e+01 +4.4842798096e+02 4.7632434645e+02 1.2509969499e+02 5.9032e+01 0.0000e+00
 -1000101  2    1    2    0    0 +5.3178277324e+01 -8.5553293634e+01 +3.2808932671e+02 3.6529430496e+02 1.2510007076e+02 6.3290e+01 0.0000e+00
       11  1    3    3    0    0 -2.7675361187e-02 -9.7939033900e-03 +4.5340311575e-01 4.5435282838e-01 5.1100000000e-04 0.0000e+00 1.0000e+00
      255  1    3    3    0    0 -5.3150601963e+01 +8.5563087538e+01 +4.4797457785e+02 4.7586999363e+02 1.2500000000e+02 0.0000e+00 0.0000e+00
      -11  1    4    4    0    0 -6.4663587948e-02 -3.4594659078e-02 +1.1811921015e-01 1.3903445246e-01 5.1100000000e-04 0.0000e+00 -1.0000e+00
      255  1    4    4    0    0 +5.3242940912e+01 -8.5518698975e+01 +3.2797120750e+02 3.6515527051e+02 1.2500000000e+02 0.0000e+00 0.0000e+00
<mgrwt>
<rscale>  0 0.32456559E+03</rscale>
<asrwt>0</asrwt>
<pdfrwt beam="1">  1        2 0.12447199E+00 0.32456559E+03</pdfrwt>
<pdfrwt beam="2">  1       -2 0.50077959E-02 0.32456559E+03</pdfrwt>
<totfact> 0.68483455E+03</totfact>
</mgrwt>
</event>
<event>
 8      1 +1.6198320e-01 3.75689600e+02 7.81860800e-03 1.05253900e-01
       -3 -1    0    0    0  501 -0.0000000000e+00 +0.0000000000e+00 +2.1575257792e+01 2.1575494196e+01 1.0100000000e-01 0.0000e+00 -1.0000e+00
        3 -1    0    0  501    0 +0.0000000000e+00 -0.0000000000e+00 -1.6354596406e+03 1.6354596438e+03 1.0100000000e-01 0.0000e+00 1.0000e+00
  1000101  2    1    2    0    0 -2.2310204824e+01 -6.5337837710e+01 -1.3447679843e+03 1.3523378662e+03 1.2509993773e+02 1.5126e+02 0.0000e+00
 -1000101  2    1    2    0    0 +2.2310204824e+01 +6.5337837710e+01 -2.6911639856e+02 3.0469727179e+02 1.2510001274e+02 1.7530e+02 0.0000e+00
       11  1    3    3    0    0 -2.6492460070e-02 +3.0645156390e-02 -1.3564298684e+00 1.3570347177e+00 5.1100000000e-04 0.0000e+00 1.0000e+00
      255  1    3    3    0    0 -2.2283712364e+01 -6.5368482867e+01 -1.3434115544e+03 1.3509808315e+03 1.2500000000e+02 0.0000e+00 0.0000e+00
      -11  1    4    4    0    0 +3.2738692686e-02 -3.9341772161e-02 -2.5647036797e-01 2.6152802489e-01 5.1100000000e-04 0.0000e+00 -1.0000e+00
      255  1    4    4    0    0 +2.2277466131e+01 +6.5377179482e+01 -2.6885992820e+02 3.0443574377e+02 1.2500000000e+02 0.0000e+00 0.0000e+00
<mgrwt>
<rscale>  0 0.37568956E+03</rscale>
<asrwt>0</asrwt>
<pdfrwt beam="1">  1        3 0.25160910E+00 0.37568956E+03</pdfrwt>
<pdfrwt beam="2">  1       -3 0.33192902E-02 0.37568956E+03</pdfrwt>
<totfact> 0.90118966E+01</totfact>
</mgrwt>
</event>
<event>
 8      1 +1.6198320e-01 2.63852200e+02 7.81860800e-03 1.10485100e-01
       -2 -1    0    0    0  501 -0.0000000000e+00 +0.0000000000e+00 +1.1231459471e+01 1.1231459761e+01 2.5500000000e-03 0.0000e+00 -1.0000e+00
        2 -1    0    0  501    0 +0.0000000000e+00 -0.0000000000e+00 -1.5496203123e+03 1.5496203123e+03 2.5500000000e-03 0.0000e+00 1.0000e+00
  1000101  2    1    2    0    0 -8.9158939590e+00 -1.8679099881e+01 -5.5377552897e+02 5.6810718676e+02 1.2510010880e+02 1.2261e+02 0.0000e+00
 -1000101  2    1    2    0    0 +8.9158939590e+00 +1.8679099881e+01 -9.8461332382e+02 9.9274458527e+02 1.2510000878e+02 4.0335e+01 0.0000e+00
       11  1    3    3    0    0 +7.7788299704e-02 +3.1962790408e-02 -5.1087412473e-01 5.1775020230e-01 5.1100000000e-04 0.0000e+00 1.0000e+00
      255  1    3    3    0    0 -8.9936822587e+00 -1.8711062672e+01 -5.5326465484e+02 5.6758943655e+02 1.2500000000e+02 0.0000e+00 0.0000e+00
      -11  1    4    4    0    0 +2.2907731850e-03 +1.0680521720e-01 -1.2123225261e+00 1.2170204478e+00 5.1100000000e-04 0.0000e+00 -1.0000e+00
      255  1    4    4    0    0 +8.9136031858e+00 +1.8572294664e+01 -9.8340100129e+02 9.9152756482e+02 1.2500000000e+02 0.0000e+00 0.0000e+00
<mgrwt>
<rscale>  0 0.26385222E+03</rscale>
<asrwt>0</asrwt>
<pdfrwt beam="1">  1        2 0.23840296E+00 0.26385222E+03</pdfrwt>
<pdfrwt beam="2">  1       -2 0.17279181E-02 0.26385222E+03</pdfrwt>
<totfact> 0.12290284E+04</totfact>
</mgrwt>
</event>
<event>
 8      1 +1.6198320e-01 4.21300300e+02 7.81860800e-03 1.03664400e-01
        2 -1    0    0  501    0 +0.0000000000e+00 +0.0000000000e+00 +4.3410531288e+01 4.3410531363e+01 2.5500000000e-03 0.0000e+00 1.0000e+00
       -2 -1    0    0    0  501 -0.0000000000e+00 -0.0000000000e+00 -1.0221823583e+03 1.0221823583e+03 2.5500000000e-03 0.0000e+00 -1.0000e+00
  1000101  2    1    2    0    0 +1.4511430606e+01 +7.0069858300e+01 -1.0080269928e+02 1.7587375986e+02 1.2510007420e+02 2.8640e+00 0.0000e+00
 -1000101  2    1    2    0    0 -1.4511430606e+01 -7.0069858300e+01 -8.7796912777e+02 8.8971912984e+02 1.2509985622e+02 1.4789e+02 0.0000e+00
       11  1    3    3    0    0 +9.9886962965e-02 +3.7812225756e-02 -1.3355068046e-01 1.7100647695e-01 5.1100000000e-04 0.0000e+00 1.0000e+00
      255  1    3    3    0    0 +1.4411543643e+01 +7.0032046074e+01 -1.0066914860e+02 1.7570275338e+02 1.2500000000e+02 0.0000e+00 0.0000e+00
      -11  1    4    4    0    0 -9.0597526453e-02 -1.1850436490e-01 -1.1548013052e+00 1.1643957711e+00 5.1100000000e-04 0.0000e+00 -1.0000e+00
      255  1    4    4    0    0 -1.4420833079e+01 -6.9951353935e+01 -8.7681432647e+02 8.8855473407e+02 1.2500000000e+02 0.0000e+00 0.0000e+00
<mgrwt>
<rscale>  0 0.42130027E+03</rscale>
<asrwt>0</asrwt>
<pdfrwt beam="1">  1        2 0.66785441E-02 0.42130027E+03</pdfrwt>
<pdfrwt beam="2">  1       -2 0.15725881E+00 0.42130027E+03</pdfrwt>
<totfact> 0.30153506E+02</totfact>
</mgrwt>
</event>
<event>
 8      1 +1.6198320e-01 3.04233300e+02 7.81860800e-03 1.08314300e-01
        3 -1    0    0  501    0 +0.0000000000e+00 +0.0000000000e+00 +7.6858051932e+02 7.6858052596e+02 1.0100000000e-01 0.0000e+00 1.0000e+00
       -3 -1    0    0    0  501 -0.0000000000e+00 -0.0000000000e+00 -3.0106674200e+01 3.0106843614e+01 1.0100000000e-01 0.0000e+00 -1.0000e+00
  1000101  2    1    2    0    0 -8.4634143984e+01 -1.6610698110e+01 +3.5055643995e+02 3.8207154768e+02 1.2509994542e+02 6.3842e+00 0.0000e+00
 -1000101  2    1    2    0    0 +8.4634143984e+01 +1.6610698110e+01 +3.8791740518e+02 4.1661582189e+02 1.2509986486e+02 2.7586e+00 0.0000e+00
       11  1    3    3    0    0 -1.0329715116e-01 +1.8807517710e-02 +5.4188429550e-01 5.5196274782e-01 5.1100000000e-04 0.0000e+00 1.0000e+00
      255  1    3    3    0    0 -8.4530846833e+01 -1.6629505628e+01 +3.5001455565e+02 3.8151958494e+02 1.2500000000e+02 0.0000e+00 0.0000e+00
      -11  1    4    4    0    0 +7.5660100646e-02 +9.0243966022e-02 +1.6619187539e-01 2.0368707568e-01 5.1100000000e-04 0.0000e+00 -1.0000e+00
      255  1    4    4    0    0 +8.4558483883e+01 +1.6520454144e+01 +3.8775121330e+02 4.1641213481e+02 1.2500000000e+02 0.0000e+00 0.0000e+00
<mgrwt>
<rscale>  0 0.30423329E+03</rscale>
<asrwt>0</asrwt>
<pdfrwt beam="1">  1        3 0.11824317E+00 0.30423329E+03</pdfrwt>
<pdfrwt beam="2">  1       -3 0.46318097E-02 0.30423329E+03</pdfrwt>
<totfact> 0.40406002E+02</totfact>
</mgrwt>
</event>
<event>
 8      1 +1.6198320e-01 2.54663700e+02 7.81860800e-03 1.11039200e-01
       -2 -1    0    0    0  501 -0.0000000000e+00 +0.0000000000e+00 +3.5130420891e+01 3.5130420984e+01 2.5500000000e-03 0.0000e+00 -1.0000e+00
        2 -1    0    0  501    0 +0.0000000000e+00 -0.0000000000e+00 -4.6152007926e+02 4.6152007926e+02 2.5500000000e-03 0.0000e+00 1.0000e+00
  1000101  2    1    2    0    0 -1.3221523343e+01 -5.7444919126e+00 -2.4996862945e+02 2.7989641158e+02 1.2509947097e+02 6.6074e+00 0.0000e+00
 -1000101  2    1    2    0    0 +1.3221523343e+01 +5.7444919126e+00 -1.7642102891e+02 2.1675408867e+02 1.2510055014e+02 1.1978e+02 0.0000e+00
       11  1    3    3    0    0 -5.4309562320e-02 -9.4229082086e-02 -2.2027970795e-01 2.4566656127e-01 5.1100000000e-04 0.0000e+00 1.0000e+00
      255  1    3    3    0    0 -1.3167213781e+01 -5.6502628305e+00 -2.4974834975e+02 2.7965074502e+02 1.2500000000e+02 0.0000e+00 0.0000e+00
      -11  1    4    4    0    0 -7.1697682719e-02 -2.1327132770e-02 -3.7731317046e-02 8.3781368496e-02 5.1100000000e-04 0.0000e+00 -1.0000e+00
      255  1    4    4    0    0 +1.3293221026e+01 +5.7658190454e+00 -1.7638329759e+02 2.1667030730e+02 1.2500000000e+02 0.0000e+00 0.0000e+00
<mgrwt>
<rscale>  0 0.25466366E+03</rscale>
<asrwt>0</asrwt>
<pdfrwt beam="1">  1        2 0.71003085E-01 0.25466366E+03</pdfrwt>
<pdfrwt beam="2">  1       -2 0.54046805E-02 0.25466366E+03</pdfrwt>
<totfact> 0.11712480E+04</totfact>
</mgrwt>
</event>
<event>
 8      1 +1.6198320e-01 3.11305400e+02 7.81860800e-03 1.07972200e-01
       -2 -1    0    0    0  501 -0.0000000000e+00 +0.0000000000e+00 +3.0806398333e+02 3.0806398334e+02 2.5500000000e-03 0.0000e+00 -1.0000e+00
        2 -1    0    0  501    0 +0.0000000000e+00 -0.0000000000e+00 -7.8645237753e+01 7.8645237794e+01 2.5500000000e-03 0.0000e+00 1.0000e+00
  1000101  2    1    2    0    0 +1.4369093557e+01 -6.3009321127e+01 +1.9711890250e+02 2.4224488204e+02 1.2510026280e+02 1.3374e+02 0.0000e+00
 -1000101  2    1    2    0    0 -1.4369093557e+01 +6.3009321127e+01 +3.2299843076e+01 1.4446433909e+02 1.2510004000e+02 1.3243e+02 0.0000e+00
       11  1    3    3    0    0 +4.0069475223e-02 -5.9068119448e-02 +2.3589599035e-03 7.1417304579e-02 5.1100000000e-04 0.0000e+00 1.0000e+00
      255  1    3    3    0    0 +1.4329024081e+01 -6.2950253008e+01 +1.9711654354e+02 2.4217346474e+02 1.2500000000e+02 0.0000e+00 0.0000e+00
      -11  1    4    4    0    0 +2.5084231564e-02 +1.2052445903e-02 +1.1064989585e-01 1.1409706700e-01 5.1100000000e-04 0.0000e+00 -1.0000e+00
      255  1    4    4    0    0 -1.4394177788e+01 +6.2997268681e+01 +3.2189193180e+01 1.4435024203e+02 1.2500000000e+02 0.0000e+00 0.0000e+00
<mgrwt>
<rscale>  0 0.31130541E+03</rscale>
<asrwt>0</asrwt>
<pdfrwt beam="1">  1        2 0.12099267E-01 0.31130541E+03</pdfrwt>
<pdfrwt beam="2">  1       -2 0.47394459E-01 0.31130541E+03</pdfrwt>
<totfact> 0.21658044E+03</totfact>
</mgrwt>
</event>
<event>
 8      1 +1.6198320e-01 3.82314300e+02 7.81860800e-03 1.05008200e-01
       -2 -1    0    0    0  501 -0.0000000000e+00 +0.0000000000e+00 +2.5691235259e+01 2.5691235386e+01 2.5500000000e-03 0.0000e+00 -1.0000e+00
        2 -1    0    0  501    0 +0.0000000000e+00 -0.0000000000e+00 -1.4223163352e+03 1.4223163352e+03 2.5500000000e-03 0.0000e+00 1.0000e+00
  1000101  2    1    2    0    0 +9.5186302681e+01 -7.5952303725e+01 -9.9319797821e+02 1.0084252518e+03 1.2510027936e+02 3.1819e+01 0.0000e+00
 -1000101  2    1    2    0    0 -9.5186302681e+01 +7.5952303725e+01 -4.0342712172e+02 4.3958231877e+02 1.2509991119e+02 1.2011e+02 0.0000e+00
       11  1    3    3    0    0 +6.2732371331e-02 +3.8417424170e-02 -8.0072673793e-01 8.0409876187e-01 5.1100000000e-04 0.0000e+00 1.0000e+00
      255  1    3    3    0    0 +9.5123570310e+01 -7.5990721149e+01 -9.9239725147e+02 1.0076211530e+03 1.2500000000e+02 0.0000e+00 0.0000e+00
      -11  1    4    4    0    0 +1.4648648034e-02 +9.5919004987e-02 -1.4031686418e-01 1.7059930217e-01 5.1100000000e-04 0.0000e+00 -1.0000e+00
      255  1    4    4    0    0 -9.5200951329e+01 +7.5856384720e+01 -4.0328680485e+02 4.3941171947e+02 1.2500000000e+02 0.0000e+00 0.0000e+00
<mgrwt>
<rscale>  0 0.38231434E+03</rscale>
<asrwt>0</asrwt>
<pdfrwt beam="1">  1        2 0.21881784E+00 0.38231434E+03</pdfrwt>
<pdfrwt beam="2">  1       -2 0.39524988E-02 0.38231434E+03</pdfrwt>
<totfact> 0.42161381E+03</totfact>
</mgrwt>
</event>
<event>
 8      1 +1.6198320e-01 3.25603000e+02 7.81860800e-03 1.07309900e-01
        2 -1    0    0  501    0 +0.0000000000e+00 +0.0000000000e+00 +5.7611895513e+02 5.7611895513e+02 2.5500000000e-03 0.0000e+00 1.0000e+00
       -2 -1    0    0    0  501 -0.0000000000e+00 -0.0000000000e+00 -4.6004955691e+01 4.6004955762e+01 2.5500000000e-03 0.0000e+00 -1.0000e+00
  1000101  2    1    2    0    0 -7.1619092472e+01 -7.5648081404e+01 +2.6210021396e+02 3.0854247043e+02 1.2509998909e+02 1.7972e+02 0.0000e+00
 -1000101  2    1    2    0    0 +7.1619092472e+01 +7.5648081404e+01 +2.6801378547e+02 3.1358144047e+02 1.2509997593e+02 2.7028e+01 0.0000e+00
       11  1    3    3    0    0 +3.1622551075e-02 -6.3304662347e-02 +2.6096736302e-01 2.7039173747e-01 5.1100000000e-04 0.0000e+00 1.0000e+00
      255  1    3    3    0    0 -7.1650715023e+01 -7.5584776741e+01 +2.6183924660e+02 3.0827207869e+02 1.2500000000e+02 0.0000e+00 0.0000e+00
      -11  1    4    4    0    0 -3.0405709864e-02 -3.5232968874e-02 +9.0708484702e-02 1.0195175137e-01 5.1100000000e-04 0.0000e+00 -1.0000e+00
      255  1    4    4    0    0 +7.1649498182e+01 +7.5683314372e+01 +2.6792307699e+02 3.1347948872e+02 1.2500000000e+02 0.0000e+00 0.0000e+00
<mgrwt>
<rscale>  0 0.32560299E+03</rscale>
<asrwt>0</asrwt>
<pdfrwt beam="1">  1        2 0.88633682E-01 0.32560299E+03</pdfrwt>
<pdfrwt beam="2">  1       -2 0.70776857E-02 0.32560299E+03</pdfrwt>
<totfact> 0.60730608E+03</totfact>
</mgrwt>
</event>
<event>
 8      1 +1.6198320e-01 4.56096900e+02 7.81860800e-03 1.02591900e-01
       -2 -1    0    0    0  501 -0.0000000000e+00 +0.0000000000e+00 +7.3429515683e+01 7.3429515728e+01 2.5500000000e-03 0.0000e+00 -1.0000e+00
        2 -1    0    0  501    0 +0.0000000000e+00 -0.0000000000e+00 -7.0824512054e+02 7.0824512055e+02 2.5500000000e-03 0.0000e+00 1.0000e+00
  1000101  2    1    2    0    0 +5.6165794655e+00 -8.4311929109e+01 -6.1034864681e+02 6.2874120772e+02 1.2509991316e+02 7.2344e+01 0.0000e+00
 -1000101  2    1    2    0    0 -5.6165794655e+00 +8.4311929109e+01 -2.4466958055e+01 1.5293342856e+02 1.2509977689e+02 1.1167e+02 0.0000e+00
       11  1    3    3    0    0 +2.2115196802e-02 -1.8499523153e-01 -8.1748034383e-01 8.3844301612e-01 5.1100000000e-04 0.0000e+00 1.0000e+00
      255  1    3    3    0    0 +5.5944642687e+00 -8.4126933877e+01 -6.0953116646e+02 6.2790276470e+02 1.2500000000e+02 0.0000e+00 0.0000e+00
      -11  1    4    4    0    0 -4.6425986763e-02 +1.0344449369e-01 +6.3813397767e-02 1.3010974743e-01 5.1100000000e-04 0.0000e+00 -1.0000e+00
      255  1    4    4    0    0 -5.5701534787e+00 +8.4208484615e+01 -2.4530771453e+01 1.5280331881e+02 1.2500000000e+02 0.0000e+00 0.0000e+00
<mgrwt>
<rscale>  0 0.45609690E+03</rscale>
<asrwt>0</asrwt>
<pdfrwt beam="1">  1        2 0.10896078E+00 0.45609690E+03</pdfrwt>
<pdfrwt beam="2">  1       -2 0.11296849E-01 0.45609690E+03</pdfrwt>
<totfact> 0.22648624E+03</totfact>
</mgrwt>
</event>
<event>
 8      1 +1.6198320e-01 3.26053500e+02 7.81860800e-03 1.07289700e-01
       -1 -1    0    0    0  501 -0.0000000000e+00 +0.0000000000e+00 +4.9986424859e+02 4.9986424861e+02 5.0400000000e-03 0.0000e+00 -1.0000e+00
        1 -1    0    0  501    0 +0.0000000000e+00 -0.0000000000e+00 -5.3169868773e+01 5.3169869012e+01 5.0400000000e-03 0.0000e+00 1.0000e+00
  1000101  2    1    2    0    0 -5.8077746141e+01 +7.9215565527e+01 +2.8402052634e+02 3.2552388651e+02 1.2510000356e+02 4.8814e+01 0.0000e+00
 -1000101  2    1    2    0    0 +5.8077746141e+01 -7.9215565527e+01 +1.6267385348e+02 2.2751023111e+02 1.2509992901e+02 1.6450e+01 0.0000e+00
       11  1    3    3    0    0 -1.0455316843e-01 +1.4576346318e-01 +4.6257408030e-01 4.9613848180e-01 5.1100000000e-04 0.0000e+00 1.0000e+00
      255  1    3    3    0    0 -5.7973192972e+01 +7.9069802064e+01 +2.8355795226e+02 3.2502774803e+02 1.2500000000e+02 0.0000e+00 0.0000e+00
      -11  1    4    4    0    0 +3.6962220292e-02 -1.3603009702e-01 +5.5751231382e-02 1.5158777637e-01 5.1100000000e-04 0.0000e+00 -1.0000e+00
      255  1    4    4    0    0 +5.8040783920e+01 -7.9079535430e+01 +1.6261810225e+02 2.2735864334e+02 1.2500000000e+02 0.0000e+00 0.0000e+00
<mgrwt>
<rscale>  0 0.32605347E+03</rscale>
<asrwt>0</asrwt>
<pdfrwt beam="1">  1        1 0.81799797E-02 0.32605347E+03</pdfrwt>
<pdfrwt beam="2">  1       -1 0.76902193E-01 0.32605347E+03</pdfrwt>
<totfact> 0.14968560E+03</totfact>
</mgrwt>
</event>
<event>
 8      1 +1.6198320e-01 4.96619800e+02 7.81860800e-03 1.01466500e-01
        2 -1    0    0  501    0 +0.0000000000e+00 +0.0000000000e+00 +2.9484293213e+02 2.9484293214e+02 2.5500000000e-03 0.0000e+00 1.0000e+00
       -2 -1    0    0    0  501 -0.0000000000e+00 -0.0000000000e+00 -2.0912084165e+02 2.0912084166e+02 2.5500000000e-03 0.0000e+00 -1.0000e+00
  1000101  2    1    2    0    0 +1.9325081900e+02 +5.3574204446e+01 -3.4367617940e+01 2.3884562438e+02 1.2510005874e+02 2.8945e+02 0.0000e+00
 -1000101  2    1    2    0    0 -1.9325081900e+02 -5.3574204446e+01 +1.2008970842e+02 2.6511814942e+02 1.2510004258e+02 1.1079e+02 0.0000e+00
       11  1    3    3    0    0 +4.8479229082e-02 -2.6111398287e-02 +5.5014006264e-02 7.7838568713e-02 5.1100000000e-04 0.0000e+00 1.0000e+00
      255  1    3    3    0    0 +1.9320233978e+02 +5.3600315845e+01 -3.4422631947e+01 2.3876778582e+02 1.2500000000e+02 0.0000e+00 0.0000e+00
      -11  1    4    4    0    0 -1.0614556050e-01 -1.1415671645e-01 +1.4679803868e-01 2.1412277134e-01 5.1100000000e-04 0.0000e+00 -1.0000e+00
      255  1    4    4    0    0 -1.9314467344e+02 -5.3460047730e+01 +1.1994291038e+02 2.6490402665e+02 1.2500000000e+02 0.0000e+00 0.0000e+00
<mgrwt>
<rscale>  0 0.49661978E+03</rscale>
<asrwt>0</asrwt>
<pdfrwt beam="1">  1        2 0.45360451E-01 0.49661978E+03</pdfrwt>
<pdfrwt beam="2">  1       -2 0.32172437E-01 0.49661978E+03</pdfrwt>
<totfact> 0.10077849E+03</totfact>
</mgrwt>
</event>
<event>
 8      1 +1.6198320e-01 3.14072000e+02 7.81860800e-03 1.07841000e-01
       -2 -1    0    0    0  501 -0.0000000000e+00 +0.0000000000e+00 +1.8395003840e+01 1.8395004016e+01 2.5500000000e-03 0.0000e+00 -1.0000e+00
        2 -1    0    0  501    0 +0.0000000000e+00 -0.0000000000e+00 -1.3405977563e+03 1.3405977563e+03 2.5500000000e-03 0.0000e+00 1.0000e+00
  1000101  2    1    2    0    0 +2.9332344460e+01 -6.2733686554e+01 -9.4200377993e+02 9.5279432769e+02 1.2509999050e+02 9.4904e+00 0.0000e+00
 -1000101  2    1    2    0    0 -2.9332344460e+01 +6.2733686554e+01 -3.8019897249e+02 4.0619843258e+02 1.2509998438e+02 6.9755e+01 0.0000e+00
       11  1    3    3    0    0 +3.4919290578e-02 -1.1124472424e-01 -1.5012362658e+00 1.5057573949e+00 5.1100000000e-04 0.0000e+00 1.0000e+00
      255  1    3    3    0    0 +2.9297425170e+01 -6.2622441830e+01 -9.4050254366e+02 9.5128857030e+02 1.2500000000e+02 0.0000e+00 0.0000e+00
      -11  1    4    4    0    0 -9.6372560121e-02 +3.2967397434e-03 -1.4666158614e-01 1.7552327711e-01 5.1100000000e-04 0.0000e+00 -1.0000e+00
      255  1    4    4    0    0 -2.9235971900e+01 +6.2730389814e+01 -3.8005231090e+02 4.0602290931e+02 1.2500000000e+02 0.0000e+00 0.0000e+00
<mgrwt>
<rscale>  0 0.31407197E+03</rscale>
<asrwt>0</asrwt>
<pdfrwt beam="1">  1        2 0.20624573E+00 0.31407197E+03</pdfrwt>
<pdfrwt beam="2">  1       -2 0.28300017E-02 0.31407197E+03</pdfrwt>
<totfact> 0.77174738E+03</totfact>
</mgrwt>
</event>
<event>
 8      1 +1.6198320e-01 5.66649600e+02 7.81860800e-03 9.97712000e-02
        2 -1    0    0  501    0 +0.0000000000e+00 +0.0000000000e+00 +1.8634115497e+02 1.8634115499e+02 2.5500000000e-03 0.0000e+00 1.0000e+00
       -2 -1    0    0    0  501 -0.0000000000e+00 -0.0000000000e+00 -4.3078485066e+02 4.3078485067e+02 2.5500000000e-03 0.0000e+00 -1.0000e+00
  1000101  2    1    2    0    0 -1.8149197262e+02 +1.1168109856e+02 -2.7317203139e+02 3.6835439598e+02 1.2509995363e+02 4.1821e+01 0.0000e+00
 -1000101  2    1    2    0    0 +1.8149197262e+02 -1.1168109856e+02 +2.8728335702e+01 2.4877160969e+02 1.2509993050e+02 8.0008e+00 0.0000e+00
       11  1    3    3    0    0 -1.9332390744e-01 +2.1329565213e-01 -2.8188097954e-01 4.0289740152e-01 5.1100000000e-04 0.0000e+00 1.0000e+00
      255  1    3    3    0    0 -1.8129864871e+02 +1.1146780291e+02 -2.7289015041e+02 3.6795149857e+02 1.2500000000e+02 0.0000e+00 0.0000e+00
      -11  1    4    4    0    0 +6.3142613677e-02 +4.1090479525e-02 +3.0868492636e-02 8.1415859195e-02 5.1100000000e-04 0.0000e+00 -1.0000e+00
      255  1    4    4    0    0 +1.8142883001e+02 -1.1172218904e+02 +2.8697467210e+01 2.4869019383e+02 1.2500000000e+02 0.0000e+00 0.0000e+00
<mgrwt>
<rscale>  0 0.56664962E+03</rscale>
<asrwt>0</asrwt>
<pdfrwt beam="1">  1        2 0.28667870E-01 0.56664962E+03</pdfrwt>
<pdfrwt beam="2">  1       -2 0.66274592E-01 0.56664962E+03</pdfrwt>
<totfact> 0.39615565E+02</totfact>
</mgrwt>
</event>
<event>
 8      1 +1.6198320e-01 2.65638400e+02 7.81860800e-03 1.10380200e-01
        2 -1    0    0  501    0 +0.0000000000e+00 +0.0000000000e+00 +2.6267709023e+01 2.6267709147e+01 2.5500000000e-03 0.0000e+00 1.0000e+00
       -2 -1    0    0    0  501 -0.0000000000e+00 -0.0000000000e+00 -6.7158296424e+02 6.7158296425e+02 2.5500000000e-03 0.0000e+00 -1.0000e+00
  1000101  2    1    2    0    0 -1.5937778239e+01 -1.5498940561e+01 -2.2102372152e+02 2.5494261657e+02 1.2510004929e+02 2.0068e+00 0.0000e+00
 -1000101  2    1    2    0    0 +1.5937778239e+01 +1.5498940561e+01 -4.2429153370e+02 4.4290805683e+02 1.2510000520e+02 5.2626e+01 0.0000e+00
       11  1    3    3    0    0 -5.5989734009e-02 -1.7503079320e-02 -6.1696984191e-03 5.8987578348e-02 5.1100000000e-04 0.0000e+00 1.0000e+00
      255  1    3    3    0    0 -1.5881788505e+01 -1.5481437481e+01 -2.2101755182e+02 2.5488362899e+02 1.2500000000e+02 0.0000e+00 0.0000e+00
      -11  1    4    4    0    0 +3.4230767142e-02 +9.7202294154e-03 -6.8724059593e-01 6.8816140991e-01 5.1100000000e-04 0.0000e+00 -1.0000e+00
      255  1    4    4    0    0 +1.5903547472e+01 +1.5489220331e+01 -4.2360429310e+02 4.4221989542e+02 1.2500000000e+02 0.0000e+00 0.0000e+00
<mgrwt>
<rscale>  0 0.26563845E+03</rscale>
<asrwt>0</asrwt>
<pdfrwt beam="1">  1        2 0.40411865E-02 0.26563845E+03</pdfrwt>
<pdfrwt beam="2">  1       -2 0.10332044E+00 0.26563845E+03</pdfrwt>
<totfact> 0.16568918E+03</totfact>
</mgrwt>
</event>
<event>
 8      1 +1.6198320e-01 4.33506400e+02 7.81860800e-03 1.03275800e-01
        2 -1    0    0  501    0 +0.0000000000e+00 +0.0000000000e+00 +1.3634010220e+03 1.3634010220e+03 2.5500000000e-03 0.0000e+00 1.0000e+00
       -2 -1    0    0    0  501 -0.0000000000e+00 -0.0000000000e+00 -3.4459380681e+01 3.4459380775e+01 2.5500000000e-03 0.0000e+00 -1.0000e+00
  1000101  2    1    2    0    0 -6.0326438975e+01 -1.5029013970e+02 +8.9487454422e+02 9.1797431676e+02 1.2509992405e+02 4.8074e+01 0.0000e+00
 -1000101  2    1    2    0    0 +6.0326438975e+01 +1.5029013970e+02 +4.3406709707e+02 4.7988608600e+02 1.2509998178e+02 1.1410e+02 0.0000e+00
       11  1    3    3    0    0 -1.3929888455e-01 -1.3058565003e-01 +1.1016334055e+00 1.1180577859e+00 5.1100000000e-04 0.0000e+00 1.0000e+00
      255  1    3    3    0    0 -6.0187140090e+01 -1.5015955405e+02 +8.9377291082e+02 9.1685625897e+02 1.2500000000e+02 0.0000e+00 0.0000e+00
      -11  1    4    4    0    0 +6.2912587900e-02 +2.0620827479e-01 +2.9507689104e-01 3.6544558973e-01 5.1100000000e-04 0.0000e+00 -1.0000e+00
      255  1    4    4    0    0 +6.0263526387e+01 +1.5008393142e+02 +4.3377202018e+02 4.7952064041e+02 1.2500000000e+02 0.0000e+00 0.0000e+00
<mgrwt>
<rscale>  0 0.43350642E+03</rscale>
<asrwt>0</asrwt>
<pdfrwt beam="1">  1        2 0.20975403E+00 0.43350642E+03</pdfrwt>
<pdfrwt beam="2">  1       -2 0.53014424E-02 0.43350642E+03</pdfrwt>
<totfact> 0.28985979E+03</totfact>
</mgrwt>
</event>
<event>
 8      1 +1.6198320e-01 3.67233400e+02 7.81860800e-03 1.05575600e-01
        1 -1    0    0  501    0 +0.0000000000e+00 +0.0000000000e+00 +4.6376308087e+02 4.6376308089e+02 5.0400000000e-03 0.0000e+00 1.0000e+00
       -1 -1    0    0    0  501 -0.0000000000e+00 -0.0000000000e+00 -7.2698955189e+01 7.2698955364e+01 5.0400000000e-03 0.0000e+00 -1.0000e+00
  1000101  2    1    2    0    0 -8.0768642186e+01 +8.8906799619e+01 +1.0743253992e+02 2.0400919594e+02 1.2509999527e+02 6.9384e+01 0.0000e+00
 -1000101  2    1    2    0    0 +8.0768642186e+01 -8.8906799619e+01 +2.8363158576e+02 3.3245284032e+02 1.2510004802e+02 4.5689e+02 0.0000e+00
       11  1    3    3    0    0 +3.0668675833e-02 +6.9873935226e-03 +1.0005991420e-01 1.0488869765e-01 5.1100000000e-04 0.0000e+00 1.0000e+00
      255  1    3    3    0    0 -8.0799310861e+01 +8.8899812226e+01 +1.0733248000e+02 2.0390430725e+02 1.2500000000e+02 0.0000e+00 0.0000e+00
      -11  1    4    4    0    0 +3.0929047264e-02 -1.3621523119e-01 +1.2099351565e-01 1.8479958638e-01 5.1100000000e-04 0.0000e+00 -1.0000e+00
      255  1    4    4    0    0 +8.0737713138e+01 -8.8770584388e+01 +2.8351059224e+02 3.3226804073e+02 1.2500000000e+02 0.0000e+00 0.0000e+00
<mgrwt>
<rscale>  0 0.36723339E+03</rscale>
<asrwt>0</asrwt>
<pdfrwt beam="1">  1        1 0.71348165E-01 0.36723339E+03</pdfrwt>
<pdfrwt beam="2">  1       -1 0.11184455E-01 0.36723339E+03</pdfrwt>
<totfact> 0.25636778E+03</totfact>
</mgrwt>
</event>
<event>
 8      1 +1.6198320e-01 2.65963200e+02 7.81860800e-03 1.10361200e-01
       -2 -1    0    0    0  501 -0.0000000000e+00 +0.0000000000e+00 +9.5365975510e+01 9.5365975544e+01 2.5500000000e-03 0.0000e+00 -1.0000e+00
        2 -1    0    0  501    0 +0.0000000000e+00 -0.0000000000e+00 -1.8543414396e+02 1.8543414398e+02 2.5500000000e-03 0.0000e+00 1.0000e+00
  1000101  2    1    2    0    0 +2.1322607076e+01 +2.0649869509e+01 -8.0884726274e+01 1.5189936033e+02 1.2509998418e+02 3.8648e+02 0.0000e+00
 -1000101  2    1    2    0    0 -2.1322607076e+01 -2.0649869509e+01 -9.1834421798e+00 1.2890075919e+02 1.2509995774e+02 8.5155e+01 0.0000e+00
       11  1    3    3    0    0 +6.7154105755e-02 +2.7746516835e-02 -1.7297517173e-01 1.8761720143e-01 5.1100000000e-04 0.0000e+00 1.0000e+00
      255  1    3    3    0    0 +2.1255452971e+01 +2.0622122992e+01 -8.0711751102e+01 1.5171174313e+02 1.2500000000e+02 0.0000e+00 0.0000e+00
      -11  1    4    4    0    0 -1.0776343586e-01 +8.5278877990e-03 +2.7271907715e-02 1.1148856914e-01 5.1100000000e-04 0.0000e+00 -1.0000e+00
      255  1    4    4    0    0 -2.1214843640e+01 -2.0658397397e+01 -9.2107140875e+00 1.2878927062e+02 1.2500000000e+02 0.0000e+00 0.0000e+00
<mgrwt>
<rscale>  0 0.26596322E+03</rscale>
<asrwt>0</asrwt>
<pdfrwt beam="1">  1        2 0.28528330E-01 0.26596322E+03</pdfrwt>
<pdfrwt beam="2">  1       -2 0.14671689E-01 0.26596322E+03</pdfrwt>
<totfact> 0.65236397E+03</totfact>
</mgrwt>
</event>
<event>
 8      1 +1.6198320e-01 2.92985300e+02 7.81860800e-03 1.08880100e-01
       -2 -1    0    0    0  501 -0.0000000000e+00 +0.0000000000e+00 +1.0534657093e+01 1.0534657401e+01 2.5500000000e-03 0.0000e+00 -1.0000e+00
        2 -1    0    0  501    0 +0.0000000000e+00 -0.0000000000e+00 -2.0370947862e+03 2.0370947862e+03 2.5500000000e-03 0.0000e+00 1.0000e+00
  1000101  2    1    2    0    0 -3.5733563628e+01 -3.5755129847e+01 -1.4119975056e+03 1.4184295196e+03 1.2510007768e+02 2.8640e+01 0.0000e+00
 -1000101  2    1    2    0    0 +3.5733563628e+01 +3.5755129847e+01 -6.1456262345e+02 6.2919992392e+02 1.2509999698e+02 1.3311e+02 0.0000e+00
       11  1    3    3    0    0 -1.2525491283e-01 -4.0412531188e-03 -1.5449978425e+00 1.5500721659e+00 5.1100000000e-04 0.0000e+00 1.0000e+00
      255  1    3    3    0    0 -3.5608308715e+01 -3.5751088594e+01 -1.4104525078e+03 1.4168794475e+03 1.2500000000e+02 0.0000e+00 0.0000e+00
      -11  1    4    4    0    0 +3.9611229124e-02 -7.2023758173e-02 -4.6546519685e-01 4.7266751720e-01 5.1100000000e-04 0.0000e+00 -1.0000e+00
      255  1    4    4    0    0 +3.5693952398e+01 +3.5827153605e+01 -6.1409715825e+02 6.2872725640e+02 1.2500000000e+02 0.0000e+00 0.0000e+00
<mgrwt>
<rscale>  0 0.29298529E+03</rscale>
<asrwt>0</asrwt>
<pdfrwt beam="1">  1        2 0.31339888E+00 0.29298529E+03</pdfrwt>
<pdfrwt beam="2">  1       -2 0.16207181E-02 0.29298529E+03</pdfrwt>
<totfact> 0.74842271E+03</totfact>
</mgrwt>
</event>
<event>
 8      1 +1.6198320e-01 2.72443400e+02 7.81860800e-03 1.09988900e-01
        2 -1    0    0  501    0 +0.0000000000e+00 +0.0000000000e+00 +1.6652224834e+02 1.6652224835e+02 2.5500000000e-03 0.0000e+00 1.0000e+00
       -2 -1    0    0    0  501 -0.0000000000e+00 -0.0000000000e+00 -1.1143465930e+02 1.1143465933e+02 2.5500000000e-03 0.0000e+00 -1.0000e+00
  1000101  2    1    2    0    0 -4.2468149399e+01 +2.0431388200e+01 +8.3432372499e-01 1.3368501952e+02 1.2509997206e+02 1.8932e+02 0.0000e+00
 -1000101  2    1    2    0    0 +4.2468149399e+01 -2.0431388200e+01 +5.4253265314e+01 1.4427188816e+02 1.2509986243e+02 4.2058e+02 0.0000e+00
       11  1    3    3    0    0 -3.5073536207e-02 +1.1474409740e-01 +2.3895899997e-02 1.2234229027e-01 5.1100000000e-04 0.0000e+00 1.0000e+00
      255  1    3    3    0    0 -4.2433075863e+01 +2.0316644103e+01 +8.1042782499e-01 1.3356267723e+02 1.2500000000e+02 0.0000e+00 0.0000e+00
      -11  1    4    4    0    0 -2.3631048535e-02 -4.5534096419e-02 -4.5851767701e-02 6.8807166159e-02 5.1100000000e-04 0.0000e+00 -1.0000e+00
      255  1    4    4    0    0 +4.2491780447e+01 -2.0385854104e+01 +5.4299117081e+01 1.4420308100e+02 1.2500000000e+02 0.0000e+00 0.0000e+00
<mgrwt>
<rscale>  0 0.27244339E+03</rscale>
<asrwt>0</asrwt>
<pdfrwt beam="1">  1        2 0.25618808E-01 0.27244339E+03</pdfrwt>
<pdfrwt beam="2">  1       -2 0.17143794E-01 0.27244339E+03</pdfrwt>
<totfact> 0.56788461E+03</totfact>
</mgrwt>
</event>
<event>
 8      1 +1.6198320e-01 3.60567100e+02 7.81860800e-03 1.05836000e-01
       -2 -1    0    0    0  501 -0.0000000000e+00 +0.0000000000e+00 +2.2637130310e+01 2.2637130453e+01 2.5500000000e-03 0.0000e+00 -1.0000e+00
        2 -1    0    0  501    0 +0.0000000000e+00 -0.0000000000e+00 -1.4357899897e+03 1.4357899897e+03 2.5500000000e-03 0.0000e+00 1.0000e+00
  1000101  2    1    2    0    0 +1.2031802799e+02 -2.2733774036e+01 -8.8096889369e+02 8.9819231472e+02 1.2509992093e+02 3.9745e+02 0.0000e+00
 -1000101  2    1    2    0    0 -1.2031802799e+02 +2.2733774036e+01 -5.3218396572e+02 5.6023480546e+02 1.2510000616e+02 3.7220e+02 0.0000e+00
       11  1    3    3    0    0 +5.2707070534e-02 +4.2525926084e-02 -9.0566589978e-01 9.0819462276e-01 5.1100000000e-04 0.0000e+00 1.0000e+00
      255  1    3    3    0    0 +1.2026532092e+02 -2.2776299962e+01 -8.8006322780e+02 8.9728412009e+02 1.2500000000e+02 0.0000e+00 0.0000e+00
      -11  1    4    4    0    0 -2.0055734329e-02 +7.3945704483e-02 -4.6711148680e-01 4.7335356966e-01 5.1100000000e-04 0.0000e+00 -1.0000e+00
      255  1    4    4    0    0 -1.2029797226e+02 +2.2659828332e+01 -5.3171685423e+02 5.5976145189e+02 1.2500000000e+02 0.0000e+00 0.0000e+00
<mgrwt>
<rscale>  0 0.36056714E+03</rscale>
<asrwt>0</asrwt>
<pdfrwt beam="1">  1        2 0.22089070E+00 0.36056714E+03</pdfrwt>
<pdfrwt beam="2">  1       -2 0.34826366E-02 0.36056714E+03</pdfrwt>
<totfact> 0.50191826E+03</totfact>
</mgrwt>
</event>
<event>
 8      1 +1.6198320e-01 2.57496800e+02 7.81860800e-03 1.10865700e-01
       -2 -1    0    0    0  501 -0.0000000000e+00 +0.0000000000e+00 +8.5842348695e+00 8.5842352483e+00 2.5500000000e-03 0.0000e+00 -1.0000e+00
        2 -1    0    0  501    0 +0.0000000000e+00 -0.0000000000e+00 -1.9309991587e+03 1.9309991587e+03 2.5500000000e-03 0.0000e+00 1.0000e+00
  1000101  2    1    2    0    0 +2.6503726380e+00 +2.9816897031e+01 -1.0025088030e+03 1.0107274507e+03 1.2509999036e+02 6.2729e+01 0.0000e+00
 -1000101  2    1    2    0    0 -2.6503726380e+00 -2.9816897031e+01 -9.1990612081e+02 9.2885594327e+02 1.2510004169e+02 5.1972e+02 0.0000e+00
       11  1    3    3    0    0 +8.8210292154e-02 +8.0519151397e-03 -4.0679997973e-01 4.1633204730e-01 5.1100000000e-04 0.0000e+00 1.0000e+00
      255  1    3    3    0    0 +2.5621623459e+00 +2.9808845116e+01 -1.0021020031e+03 1.0103111186e+03 1.2500000000e+02 0.0000e+00 0.0000e+00
      -11  1    4    4    0    0 -6.5584037302e-02 +1.2707157650e-02 -1.8969507187e-01 2.0111494032e-01 5.1100000000e-04 0.0000e+00 -1.0000e+00
      255  1    4    4    0    0 -2.5847886007e+00 -2.9829604189e+01 -9.1971642574e+02 9.2865482833e+02 1.2500000000e+02 0.0000e+00 0.0000e+00
<mgrwt>
<rscale>  0 0.25749680E+03</rscale>
<asrwt>0</asrwt>
<pdfrwt beam="1">  1        2 0.29707645E+00 0.25749680E+03</pdfrwt>
<pdfrwt beam="2">  1       -2 0.13206531E-02 0.25749680E+03</pdfrwt>
<totfact> 0.11465194E+04</totfact>
</mgrwt>
</event>
<event>
 8      1 +1.6198320e-01 2.69580300e+02 7.81860800e-03 1.10152000e-01
        2 -1    0    0  501    0 +0.0000000000e+00 +0.0000000000e+00 +2.0896887374e+03 2.0896887374e+03 2.5500000000e-03 0.0000e+00 1.0000e+00
       -2 -1    0    0    0  501 -0.0000000000e+00 -0.0000000000e+00 -8.6943021792e+00 8.6943025531e+00 2.5500000000e-03 0.0000e+00 -1.0000e+00
  1000101  2    1    2    0    0 -2.5446644333e+01 +2.7538909801e+01 +7.8088185066e+02 7.9172748632e+02 1.2510005856e+02 3.0508e+01 0.0000e+00
 -1000101  2    1    2    0    0 +2.5446644333e+01 -2.7538909801e+01 +1.3001125845e+03 1.3066555536e+03 1.2510027992e+02 3.1765e+01 0.0000e+00
       11  1    3    3    0    0 +4.0065000795e-02 -6.2761727065e-02 +4.8797064315e-01 4.9361913290e-01 5.1100000000e-04 0.0000e+00 1.0000e+00
      255  1    3    3    0    0 -2.5486709334e+01 +2.7601671528e+01 +7.8039388001e+02 7.9123386719e+02 1.2500000000e+02 0.0000e+00 0.0000e+00
      -11  1    4    4    0    0 +8.2118335171e-02 -8.4586849255e-02 +1.8374391773e+00 1.8412173548e+00 5.1100000000e-04 0.0000e+00 -1.0000e+00
      255  1    4    4    0    0 +2.5364525998e+01 -2.7454322951e+01 +1.2982751454e+03 1.3048143362e+03 1.2500000000e+02 0.0000e+00 0.0000e+00
<mgrwt>
<rscale>  0 0.26958031E+03</rscale>
<asrwt>0</asrwt>
<pdfrwt beam="1">  1        2 0.32149094E+00 0.26958031E+03</pdfrwt>
<pdfrwt beam="2">  1       -2 0.13375835E-02 0.26958031E+03</pdfrwt>
<totfact> 0.92931759E+03</totfact>
</mgrwt>
</event>
<event>
 8      1 +1.6198320e-01 3.67045700e+02 7.81860800e-03 1.05582800e-01
       -1 -1    0    0    0  501 -0.0000000000e+00 +0.0000000000e+00 +2.9970312469e+01 2.9970312892e+01 5.0400000000e-03 0.0000e+00 1.0000e+00
        1 -1    0    0  501    0 +0.0000000000e+00 -0.0000000000e+00 -1.1237997851e+03 1.1237997851e+03 5.0400000000e-03 0.0000e+00 -1.0000e+00
  1000101  2    1    2    0    0 -1.2235217635e+02 -5.0808161831e+01 -6.1571753988e+02 6.4211341831e+02 1.2510007471e+02 1.5093e+02 0.0000e+00
 -1000101  2    1    2    0    0 +1.2235217635e+02 +5.0808161831e+01 -4.7811193274e+02 5.1165667968e+02 1.2510001306e+02 5.7087e+01 0.0000e+00
       11  1    3    3    0    0 -6.3479876540e-02 +1.9629037111e-02 -6.4789372195e-01 6.5129220008e-01 5.1100000000e-04 0.0000e+00 1.0000e+00
      255  1    3    3    0    0 -1.2228869648e+02 -5.0827790868e+01 -6.1506964616e+02 6.4146212611e+02 1.2500000000e+02 0.0000e+00 0.0000e+00
      -11  1    4    4    0    0 +1.7166209604e-01 +1.3188005837e-01 -6.9944257817e-01 7.3217511996e-01 5.1100000000e-04 0.0000e+00 -1.0000e+00
      255  1    4    4    0    0 +1.2218051426e+02 +5.0676281773e+01 -4.7741249016e+02 5.1092450456e+02 1.2500000000e+02 0.0000e+00 0.0000e+00
<mgrwt>
<rscale>  0 0.36704567E+03</rscale>
<asrwt>0</asrwt>
<pdfrwt beam="1">  1        1 0.17289224E+00 0.36704567E+03</pdfrwt>
<pdfrwt beam="2">  1       -1 0.46108182E-02 0.36704567E+03</pdfrwt>
<totfact> 0.25828629E+03</totfact>
</mgrwt>
</event>
<event>
 8      1 +1.6198320e-01 3.01717800e+02 7.81860800e-03 1.08438500e-01
       -4 -1    0    0    0  501 -0.0000000000e+00 +0.0000000000e+00 +2.2269403237e+02 2.2269765367e+02 1.2700000000e+00 0.0000e+00 -1.0000e+00
        4 -1    0    0  501    0 +0.0000000000e+00 -0.0000000000e+00 -1.0218743408e+02 1.0219532565e+02 1.2700000000e+00 0.0000e+00 1.0000e+00
  1000101  2    1    2    0    0 +2.0776748663e+01 -6.4582840534e+01 +6.3500354627e+00 1.4245316379e+02 1.2509981753e+02 5.0679e+01 0.0000e+00
 -1000101  2    1    2    0    0 -2.0776748663e+01 +6.4582840534e+01 +1.1415656282e+02 1.8243981553e+02 1.2509975572e+02 2.5932e+02 0.0000e+00
       11  1    3    3    0    0 +5.5872074217e-02 -1.4265896475e-01 -4.1061462379e-02 1.5861769672e-01 5.1100000000e-04 0.0000e+00 1.0000e+00
      255  1    3    3    0    0 +2.0720876588e+01 -6.4440181569e+01 +6.3910969251e+00 1.4229454609e+02 1.2500000000e+02 0.0000e+00 0.0000e+00
      -11  1    4    4    0    0 -9.4931858739e-02 +9.0838720840e-02 +4.3001521165e-02 1.3825021863e-01 5.1100000000e-04 0.0000e+00 -1.0000e+00
      255  1    4    4    0    0 -2.0681816804e+01 +6.4492001813e+01 +1.1411356130e+02 1.8230156532e+02 1.2500000000e+02 0.0000e+00 0.0000e+00
<mgrwt>
<rscale>  0 0.30171776E+03</rscale>
<asrwt>0</asrwt>
<pdfrwt beam="1">  1        4 0.15722029E-01 0.30171776E+03</pdfrwt>
<pdfrwt beam="2">  1       -4 0.34261506E-01 0.30171776E+03</pdfrwt>
<totfact> 0.54198829E+02</totfact>
</mgrwt>
</event>
<event>
 8      1 +1.6198320e-01 3.62262500e+02 7.81860800e-03 1.05769200e-01
        2 -1    0    0  501    0 +0.0000000000e+00 +0.0000000000e+00 +1.8637171835e+03 1.8637171835e+03 2.5500000000e-03 0.0000e+00 -1.0000e+00
       -2 -1    0    0    0  501 -0.0000000000e+00 -0.0000000000e+00 -1.7603810933e+01 1.7603811117e+01 2.5500000000e-03 0.0000e+00 1.0000e+00
  1000101  2    1    2    0    0 +9.2452774669e+01 +7.1935676897e+01 +1.2274837833e+03 1.2393904498e+03 1.2509992709e+02 5.9904e+01 0.0000e+00
 -1000101  2    1    2    0    0 -9.2452774669e+01 -7.1935676897e+01 +6.1862958931e+02 6.4193054481e+02 1.2509995379e+02 1.6627e+02 0.0000e+00
       11  1    3    3    0    0 -1.6253939724e-02 +3.7526582558e-02 +7.5891351187e-02 8.6210169129e-02 5.1100000000e-04 0.0000e+00 1.0000e+00
      255  1    3    3    0    0 +9.2469028609e+01 +7.1898150315e+01 +1.2274078919e+03 1.2393042396e+03 1.2500000000e+02 0.0000e+00 0.0000e+00
      -11  1    4    4    0    0 -1.1845622562e-01 -7.6670234239e-02 +9.5854031982e-01 9.6887048053e-01 5.1100000000e-04 0.0000e+00 -1.0000e+00
      255  1    4    4    0    0 -9.2334318444e+01 -7.1859006663e+01 +6.1767104899e+02 6.4096167433e+02 1.2500000000e+02 0.0000e+00 0.0000e+00
<mgrwt>
<rscale>  0 0.36226247E+03</rscale>
<asrwt>0</asrwt>
<pdfrwt beam="1">  1        2 0.28672557E+00 0.36226247E+03</pdfrwt>
<pdfrwt beam="2">  1       -2 0.27082800E-02 0.36226247E+03</pdfrwt>
<totfact> 0.43200022E+03</totfact>
</mgrwt>
</event>
<event>
 8      1 +1.6198320e-01 4.67013900e+02 7.81860800e-03 1.02276600e-01
       -4 -1    0    0    0  501 -0.0000000000e+00 +0.0000000000e+00 +1.1338887474e+02 1.1339598677e+02 1.2700000000e+00 0.0000e+00 -1.0000e+00
        4 -1    0    0  501    0 +0.0000000000e+00 -0.0000000000e+00 -4.8084852549e+02 4.8085020263e+02 1.2700000000e+00 0.0000e+00 1.0000e+00
  1000101  2    1    2    0    0 +1.9257312804e+02 +4.1557502172e+01 -1.9390327512e+02 3.0341419113e+02 1.2510098179e+02 1.3749e+02 0.0000e+00
 -1000101  2    1    2    0    0 -1.9257312804e+02 -4.1557502172e+01 -1.7355637562e+02 2.9083199827e+02 1.2509996031e+02 3.7864e+01 0.0000e+00
       11  1    3    3    0    0 +2.2922866630e-01 -4.9307249966e-02 -1.9810390077e-01 3.0695667931e-01 5.1100000000e-04 0.0000e+00 1.0000e+00
      255  1    3    3    0    0 +1.9234389937e+02 +4.1606809422e+01 -1.9370517122e+02 3.0310723445e+02 1.2500000000e+02 0.0000e+00 0.0000e+00
      -11  1    4    4    0    0 -1.5079434904e-01 -3.2759499138e-02 -1.2208766091e-02 1.5479481767e-01 5.1100000000e-04 0.0000e+00 -1.0000e+00
      255  1    4    4    0    0 -1.9242233369e+02 -4.1524742673e+01 -1.7354416686e+02 2.9067720345e+02 1.2500000000e+02 0.0000e+00 0.0000e+00
<mgrwt>
<rscale>  0 0.46701385E+03</rscale>
<asrwt>0</asrwt>
<pdfrwt beam="1">  1        4 0.73977371E-01 0.46701385E+03</pdfrwt>
<pdfrwt beam="2">  1       -4 0.17445119E-01 0.46701385E+03</pdfrwt>
<totfact> 0.95102558E+01</totfact>
</mgrwt>
</event>
<event>
 8      1 +1.6198320e-01 2.92144000e+02 7.81860800e-03 1.08923500e-01
        1 -1    0    0  501    0 +0.0000000000e+00 +0.0000000000e+00 +7.6439985704e+02 7.6439985706e+02 5.0400000000e-03 0.0000e+00 1.0000e+00
       -1 -1    0    0    0  501 -0.0000000000e+00 -0.0000000000e+00 -2.7913444996e+01 2.7913445451e+01 5.0400000000e-03 0.0000e+00 -1.0000e+00
  1000101  2    1    2    0    0 +6.9305231105e+01 -1.4970041817e+01 +4.3790218770e+02 4.6090737393e+02 1.2509981669e+02 3.7119e+01 0.0000e+00
 -1000101  2    1    2    0    0 -6.9305231105e+01 +1.4970041817e+01 +2.9858422434e+02 3.3140592858e+02 1.2510009297e+02 1.4879e+02 0.0000e+00
       11  1    3    3    0    0 +7.0842247592e-02 -9.3448150401e-02 +2.1312691639e-01 2.4325814369e-01 5.1100000000e-04 0.0000e+00 1.0000e+00
      255  1    3    3    0    0 +6.9234388857e+01 -1.4876593667e+01 +4.3768906079e+02 4.6066411579e+02 1.2500000000e+02 0.0000e+00 0.0000e+00
      -11  1    4    4    0    0 +1.5843713780e-02 -5.8603697317e-02 +5.7521872675e-02 8.3632789998e-02 5.1100000000e-04 0.0000e+00 -1.0000e+00
      255  1    4    4    0    0 -6.9321074818e+01 +1.5028645515e+01 +2.9852670247e+02 3.3132229579e+02 1.2500000000e+02 0.0000e+00 0.0000e+00
<mgrwt>
<rscale>  0 0.29214403E+03</rscale>
<asrwt>0</asrwt>
<pdfrwt beam="1">  1        1 0.11759999E+00 0.29214403E+03</pdfrwt>
<pdfrwt beam="2">  1       -1 0.42943756E-02 0.29214403E+03</pdfrwt>
<totfact> 0.54639837E+03</totfact>
</mgrwt>
</event>
<event>
 8      1 +1.6198320e-01 7.36736200e+02 7.81860800e-03 9.65639200e-02
       -1 -1    0    0    0  501 -0.0000000000e+00 +0.0000000000e+00 +1.4583293072e+02 1.4583293081e+02 5.0400000000e-03 0.0000e+00 -1.0000e+00
        1 -1    0    0  501    0 +0.0000000000e+00 -0.0000000000e+00 -9.3048300260e+02 9.3048300261e+02 5.0400000000e-03 0.0000e+00 1.0000e+00
  1000101  2    1    2    0    0 +2.1058722918e+02 +2.2678977059e+02 -1.6475665592e+02 3.7225706993e+02 1.2509991727e+02 1.1558e+02 0.0000e+00
 -1000101  2    1    2    0    0 -2.1058722918e+02 -2.2678977059e+02 -6.1989341595e+02 7.0405886350e+02 1.2510177851e+02 7.4340e+01 0.0000e+00
       11  1    3    3    0    0 +4.9360686330e-02 +1.8749382850e-01 -6.5046567855e-02 2.0450361902e-01 5.1100000000e-04 0.0000e+00 1.0000e+00
      255  1    3    3    0    0 +2.1053786849e+02 +2.2660227676e+02 -1.6469160936e+02 3.7205256631e+02 1.2500000000e+02 0.0000e+00 0.0000e+00
      -11  1    4    4    0    0 -8.4649145932e-02 -8.5312726523e-02 -9.0101446365e-02 1.5020742649e-01 5.1100000000e-04 0.0000e+00 -1.0000e+00
      255  1    4    4    0    0 -2.1050258003e+02 -2.2670445787e+02 -6.1980331451e+02 7.0390865607e+02 1.2500000000e+02 0.0000e+00 0.0000e+00
<mgrwt>
<rscale>  0 0.73673622E+03</rscale>
<asrwt>0</asrwt>
<pdfrwt beam="1">  1        1 0.14315123E+00 0.73673622E+03</pdfrwt>
<pdfrwt beam="2">  1       -1 0.22435836E-01 0.73673622E+03</pdfrwt>
<totfact> 0.29278569E+02</totfact>
</mgrwt>
</event>
<event>
 8      1 +1.6198320e-01 3.41463800e+02 7.81860800e-03 1.06617400e-01
        2 -1    0    0  501    0 +0.0000000000e+00 +0.0000000000e+00 +7.3436672592e+02 7.3436672592e+02 2.5500000000e-03 0.0000e+00 1.0000e+00
       -2 -1    0    0    0  501 -0.0000000000e+00 -0.0000000000e+00 -3.9693232940e+01 3.9693233022e+01 2.5500000000e-03 0.0000e+00 -1.0000e+00
  1000101  2    1    2    0    0 +5.2093676582e+01 +5.8897819594e+01 +1.5343151430e+02 2.1301129991e+02 1.2509948047e+02 2.3410e+01 0.0000e+00
 -1000101  2    1    2    0    0 -5.2093676582e+01 -5.8897819594e+01 +5.4124197867e+02 5.6104865903e+02 1.2510001613e+02 9.3342e+01 0.0000e+00
       11  1    3    3    0    0 -6.4330294198e-02 +1.2871141744e-02 +8.6062331574e-02 1.0821755439e-01 5.1100000000e-04 0.0000e+00 1.0000e+00
      255  1    3    3    0    0 +5.2158006877e+01 +5.8884948452e+01 +1.5334545197e+02 2.1290308236e+02 1.2500000000e+02 0.0000e+00 0.0000e+00
      -11  1    4    4    0    0 -2.1054214683e-02 +5.5654942279e-02 +3.9511352741e-01 3.9956940977e-01 5.1100000000e-04 0.0000e+00 -1.0000e+00
      255  1    4    4    0    0 -5.2072622368e+01 -5.8953474536e+01 +5.4084686514e+02 5.6064908962e+02 1.2500000000e+02 0.0000e+00 0.0000e+00
<mgrwt>
<rscale>  0 0.34146385E+03</rscale>
<asrwt>0</asrwt>
<pdfrwt beam="1">  1        2 0.11297949E+00 0.34146385E+03</pdfrwt>
<pdfrwt beam="2">  1       -2 0.61066516E-02 0.34146385E+03</pdfrwt>
<totfact> 0.57149422E+03</totfact>
</mgrwt>
</event>
<event>
 8      1 +1.6198320e-01 8.46539000e+02 7.81860800e-03 9.49499400e-02
       -2 -1    0    0    0  501 -0.0000000000e+00 +0.0000000000e+00 +1.2540032187e+02 1.2540032190e+02 2.5500000000e-03 0.0000e+00 -1.0000e+00
        2 -1    0    0  501    0 +0.0000000000e+00 -0.0000000000e+00 -1.4286810284e+03 1.4286810284e+03 2.5500000000e-03 0.0000e+00 1.0000e+00
  1000101  2    1    2    0    0 +1.5666515539e+02 +3.2766863152e+02 -9.7796159640e+02 1.0506995726e+03 1.2509997951e+02 1.1494e+02 0.0000e+00
 -1000101  2    1    2    0    0 -1.5666515539e+02 -3.2766863152e+02 -3.2531911010e+02 5.0338177766e+02 1.2509991083e+02 2.6083e+01 0.0000e+00
       11  1    3    3    0    0 +1.6951884151e-01 +5.0207660335e-01 -1.3331818519e+00 1.4346399076e+00 5.1100000000e-04 0.0000e+00 1.0000e+00
      255  1    3    3    0    0 +1.5649563655e+02 +3.2716655491e+02 -9.7662841455e+02 1.0492649327e+03 1.2500000000e+02 0.0000e+00 0.0000e+00
      -11  1    4    4    0    0 -1.7768259150e-01 -4.0496606935e-01 -2.6937995219e-01 5.1781699510e-01 5.1100000000e-04 0.0000e+00 -1.0000e+00
      255  1    4    4    0    0 -1.5648747280e+02 -3.2726366545e+02 -3.2504973015e+02 5.0286396066e+02 1.2500000000e+02 0.0000e+00 0.0000e+00
<mgrwt>
<rscale>  0 0.84653898E+03</rscale>
<asrwt>0</asrwt>
<pdfrwt beam="1">  1        2 0.21979707E+00 0.84653898E+03</pdfrwt>
<pdfrwt beam="2">  1       -2 0.19292358E-01 0.84653898E+03</pdfrwt>
<totfact> 0.31871139E+02</totfact>
</mgrwt>
</event>
<event>
 8      1 +1.6198320e-01 3.14069800e+02 7.81860800e-03 1.07841100e-01
       -2 -1    0    0    0  501 -0.0000000000e+00 +0.0000000000e+00 +1.8035610855e+01 1.8035611035e+01 2.5500000000e-03 0.0000e+00 -1.0000e+00
        2 -1    0    0  501    0 +0.0000000000e+00 -0.0000000000e+00 -1.3672927171e+03 1.3672927171e+03 2.5500000000e-03 0.0000e+00 1.0000e+00
  1000101  2    1    2    0    0 +4.1123129986e+01 +4.7956173403e+01 -3.6213802500e+02 3.8831027139e+02 1.2510000531e+02 1.8669e+02 0.0000e+00
 -1000101  2    1    2    0    0 -4.1123129986e+01 -4.7956173403e+01 -9.8711908121e+02 9.9701805672e+02 1.2510003412e+02 2.1582e+02 0.0000e+00
       11  1    3    3    0    0 +1.1363946515e-01 +9.9190993410e-02 -5.2021030231e-01 5.4163807193e-01 5.1100000000e-04 0.0000e+00 1.0000e+00
      255  1    3    3    0    0 +4.1009490521e+01 +4.7856982410e+01 -3.6161781470e+02 3.8776863332e+02 1.2500000000e+02 0.0000e+00 0.0000e+00
      -11  1    4    4    0    0 +3.6592751792e-03 +6.3849993319e-02 -5.9250670425e-01 5.9594854446e-01 5.1100000000e-04 0.0000e+00 -1.0000e+00
      255  1    4    4    0    0 -4.1126789261e+01 -4.8020023397e+01 -9.8652657451e+02 9.9642210817e+02 1.2500000000e+02 0.0000e+00 0.0000e+00
<mgrwt>
<rscale>  0 0.31406980E+03</rscale>
<asrwt>0</asrwt>
<pdfrwt beam="1">  1        2 0.21035265E+00 0.31406980E+03</pdfrwt>
<pdfrwt beam="2">  1       -2 0.27747104E-02 0.31406980E+03</pdfrwt>
<totfact> 0.76832754E+03</totfact>
</mgrwt>
</event>
<event>
 8      1 +1.6198320e-01 2.52768800e+02 7.81860800e-03 1.11156700e-01
       -2 -1    0    0    0  501 -0.0000000000e+00 +0.0000000000e+00 +2.7991043887e+01 2.7991044003e+01 2.5500000000e-03 0.0000e+00 -1.0000e+00
        2 -1    0    0  501    0 +0.0000000000e+00 -0.0000000000e+00 -5.7064746811e+02 5.7064746812e+02 2.5500000000e-03 0.0000e+00 1.0000e+00
  1000101  2    1    2    0    0 +8.5787624535e+00 -6.7983143158e+00 -3.0509024799e+02 3.2992400417e+02 1.2509986756e+02 6.7083e+01 0.0000e+00
 -1000101  2    1    2    0    0 -8.5787624535e+00 +6.7983143158e+00 -2.3756617624e+02 2.6871450796e+02 1.2509990588e+02 5.0360e+00 0.0000e+00
       11  1    3    3    0    0 +1.1854951041e-02 -4.4487920584e-03 -5.0608693264e-01 5.0624556899e-01 5.1100000000e-04 0.0000e+00 1.0000e+00
      255  1    3    3    0    0 +8.5669075025e+00 -6.7938655237e+00 -3.0458416106e+02 3.2941775860e+02 1.2500000000e+02 0.0000e+00 0.0000e+00
      -11  1    4    4    0    0 +1.8271577173e-02 -8.9557662678e-03 +1.9661633148e-02 2.8300127585e-02 5.1100000000e-04 0.0000e+00 -1.0000e+00
      255  1    4    4    0    0 -8.5970340307e+00 +6.8072700820e+00 -2.3758583787e+02 2.6868620783e+02 1.2500000000e+02 0.0000e+00 0.0000e+00
<mgrwt>
<rscale>  0 0.25276881E+03</rscale>
<asrwt>0</asrwt>
<pdfrwt beam="1">  1        2 0.87791910E-01 0.25276881E+03</pdfrwt>
<pdfrwt beam="2">  1       -2 0.43063149E-02 0.25276881E+03</pdfrwt>
<totfact> 0.13017488E+04</totfact>
</mgrwt>
</event>
<event>
 8      1 +1.6198320e-01 3.34965800e+02 7.81860800e-03 1.06896100e-01
       -2 -1    0    0    0  501 -0.0000000000e+00 +0.0000000000e+00 +1.1675912113e+03 1.1675912113e+03 2.5500000000e-03 0.0000e+00 -1.0000e+00
        2 -1    0    0  501    0 +0.0000000000e+00 -0.0000000000e+00 -2.4024260093e+01 2.4024260228e+01 2.5500000000e-03 0.0000e+00 1.0000e+00
  1000101  2    1    2    0    0 -7.1703026488e+01 +4.3576558320e+01 +8.3223758986e+02 8.4575981935e+02 1.2510006238e+02 5.1999e+01 0.0000e+00
 -1000101  2    1    2    0    0 +7.1703026488e+01 -4.3576558320e+01 +3.1132936135e+02 3.4585565218e+02 1.2509964215e+02 7.4929e+01 0.0000e+00
       11  1    3    3    0    0 -5.0021705612e-02 +1.0938069652e-01 +3.7951084432e-01 3.9811436784e-01 5.1100000000e-04 0.0000e+00 1.0000e+00
      255  1    3    3    0    0 -7.1653004783e+01 +4.3467177623e+01 +8.3185807901e+02 8.4536170498e+02 1.2500000000e+02 0.0000e+00 0.0000e+00
      -11  1    4    4    0    0 +1.2142186397e-01 -8.6290824476e-02 +1.7654058714e-01 2.3098964364e-01 5.1100000000e-04 0.0000e+00 -1.0000e+00
      255  1    4    4    0    0 +7.1581604624e+01 -4.3490267495e+01 +3.1115282076e+02 3.4562466254e+02 1.2500000000e+02 0.0000e+00 0.0000e+00
<mgrwt>
<rscale>  0 0.33496576E+03</rscale>
<asrwt>0</asrwt>
<pdfrwt beam="1">  1        2 0.36960401E-02 0.33496576E+03</pdfrwt>
<pdfrwt beam="2">  1       -2 0.17962941E+00 0.33496576E+03</pdfrwt>
<totfact> 0.46287560E+02</totfact>
</mgrwt>
</event>
<event>
 8      1 +1.6198320e-01 3.41545700e+02 7.81860800e-03 1.06613900e-01
       -2 -1    0    0    0  501 -0.0000000000e+00 +0.0000000000e+00 +1.2311142273e+02 1.2311142275e+02 2.5500000000e-03 0.0000e+00 -1.0000e+00
        2 -1    0    0  501    0 +0.0000000000e+00 -0.0000000000e+00 -2.3688596185e+02 2.3688596186e+02 2.5500000000e-03 0.0000e+00 1.0000e+00
  1000101  2    1    2    0    0 +1.1463541210e+02 -1.3188145160e+01 -4.2050272425e+01 1.7530954116e+02 1.2509997973e+02 2.9447e+02 0.0000e+00
 -1000101  2    1    2    0    0 -1.1463541210e+02 +1.3188145160e+01 -7.1724266697e+01 1.8468784346e+02 1.2510005679e+02 1.3083e+02 0.0000e+00
       11  1    3    3    0    0 +5.2120140950e-02 -7.3304675177e-02 -1.0078923032e-01 1.3508817330e-01 5.1100000000e-04 0.0000e+00 1.0000e+00
      255  1    3    3    0    0 +1.1458329196e+02 -1.3114840485e+01 -4.1949483195e+01 1.7517445298e+02 1.2500000000e+02 0.0000e+00 0.0000e+00
      -11  1    4    4    0    0 -1.7438569431e-01 -6.0732412471e-02 -5.1960746353e-02 1.9183059346e-01 5.1100000000e-04 0.0000e+00 -1.0000e+00
      255  1    4    4    0    0 -1.1446102641e+02 +1.3248877572e+01 -7.1672305951e+01 1.8449601287e+02 1.2500000000e+02 0.0000e+00 0.0000e+00
<mgrwt>
<rscale>  0 0.34154571E+03</rscale>
<asrwt>0</asrwt>
<pdfrwt beam="1">  1        2 0.36443994E-01 0.34154571E+03</pdfrwt>
<pdfrwt beam="2">  1       -2 0.18940219E-01 0.34154571E+03</pdfrwt>
<totfact> 0.32757692E+03</totfact>
</mgrwt>
</event>
<event>
 8      1 +1.6198320e-01 2.96990700e+02 7.81860800e-03 1.08675500e-01
        2 -1    0    0  501    0 +0.0000000000e+00 +0.0000000000e+00 +5.8471487750e+02 5.8471487751e+02 2.5500000000e-03 0.0000e+00 1.0000e+00
       -2 -1    0    0    0  501 -0.0000000000e+00 -0.0000000000e+00 -3.7712172596e+01 3.7712172682e+01 2.5500000000e-03 0.0000e+00 -1.0000e+00
  1000101  2    1    2    0    0 +2.8318636466e+01 -6.5695920782e+00 +4.2971443143e+02 4.4849703662e+02 1.2509993829e+02 6.6614e+01 0.0000e+00
 -1000101  2    1    2    0    0 -2.8318636466e+01 +6.5695920782e+00 +1.1728827347e+02 1.7393001357e+02 1.2509998328e+02 7.2221e+01 0.0000e+00
       11  1    3    3    0    0 +1.0661130931e-01 -5.9140864909e-02 +4.9020147496e-01 5.0513499220e-01 5.1100000000e-04 0.0000e+00 1.0000e+00
      255  1    3    3    0    0 +2.8212025157e+01 -6.5104512133e+00 +4.2922422996e+02 4.4799190163e+02 1.2500000000e+02 0.0000e+00 0.0000e+00
      -11  1    4    4    0    0 +7.6369751674e-02 +2.7592472476e-02 +6.0149291932e-02 1.0105385668e-01 5.1100000000e-04 0.0000e+00 -1.0000e+00
      255  1    4    4    0    0 -2.8395006218e+01 +6.5419996057e+00 +1.1722812418e+02 1.7382895972e+02 1.2500000000e+02 0.0000e+00 0.0000e+00
<mgrwt>
<rscale>  0 0.29699070E+03</rscale>
<asrwt>0</asrwt>
<pdfrwt beam="1">  1        2 0.89956127E-01 0.29699070E+03</pdfrwt>
<pdfrwt beam="2">  1       -2 0.58018732E-02 0.29699070E+03</pdfrwt>
<totfact> 0.80953817E+03</totfact>
</mgrwt>
</event>
<event>
 8      1 +1.6198320e-01 4.56857400e+02 7.81860800e-03 1.02569700e-01
       -2 -1    0    0    0  501 -0.0000000000e+00 +0.0000000000e+00 +9.0183114977e+02 9.0183114978e+02 2.5500000000e-03 0.0000e+00 -1.0000e+00
        2 -1    0    0  501    0 +0.0000000000e+00 -0.0000000000e+00 -5.7859696676e+01 5.7859696733e+01 2.5500000000e-03 0.0000e+00 1.0000e+00
  1000101  2    1    2    0    0 +1.1122412778e+01 +1.5961912464e+02 +2.0239454418e+02 2.8673251152e+02 1.2509999453e+02 9.7654e+01 0.0000e+00
 -1000101  2    1    2    0    0 -1.1122412778e+01 -1.5961912464e+02 +6.4157690891e+02 6.7295833499e+02 1.2510003023e+02 1.7739e+02 0.0000e+00
       11  1    3    3    0    0 +2.4690363828e-02 +2.8683736438e-01 +2.6479784212e-01 3.9115654920e-01 5.1100000000e-04 0.0000e+00 1.0000e+00
      255  1    3    3    0    0 +1.1097722414e+01 +1.5933228727e+02 +2.0212974634e+02 2.8634135497e+02 1.2500000000e+02 0.0000e+00 0.0000e+00
      -11  1    4    4    0    0 -9.4604725383e-02 -2.1915560324e-01 +7.1550250001e-01 7.5427005849e-01 5.1100000000e-04 0.0000e+00 -1.0000e+00
      255  1    4    4    0    0 -1.1027808053e+01 -1.5939996903e+02 +6.4086140641e+02 6.7220406493e+02 1.2500000000e+02 0.0000e+00 0.0000e+00
<mgrwt>
<rscale>  0 0.45685743E+03</rscale>
<asrwt>0</asrwt>
<pdfrwt beam="1">  1        2 0.89014916E-02 0.45685743E+03</pdfrwt>
<pdfrwt beam="2">  1       -2 0.13874326E+00 0.45685743E+03</pdfrwt>
<totfact> 0.28790827E+02</totfact>
</mgrwt>
</event>
<event>
 8      1 +1.6198320e-01 4.79640200e+02 7.81860800e-03 1.01923400e-01
       -2 -1    0    0    0  501 -0.0000000000e+00 +0.0000000000e+00 +3.4842046851e+01 3.4842046944e+01 2.5500000000e-03 0.0000e+00 -1.0000e+00
        2 -1    0    0  501    0 +0.0000000000e+00 -0.0000000000e+00 -1.6506975093e+03 1.6506975093e+03 2.5500000000e-03 0.0000e+00 1.0000e+00
  1000101  2    1    2    0    0 +1.5879458646e+01 +1.1788214787e+02 -1.3929645426e+03 1.4036198149e+03 1.2510000017e+02 1.2812e+02 0.0000e+00
 -1000101  2    1    2    0    0 -1.5879458646e+01 -1.1788214787e+02 -2.2289091989e+02 2.8191974132e+02 1.2510004150e+02 2.4280e+02 0.0000e+00
       11  1    3    3    0    0 -1.5930534658e-03 +1.9771315419e-01 -2.1796969293e+00 2.1886461555e+00 5.1100000000e-04 0.0000e+00 1.0000e+00
      255  1    3    3    0    0 +1.5881051699e+01 +1.1768443471e+02 -1.3907848456e+03 1.4014311688e+03 1.2500000000e+02 0.0000e+00 0.0000e+00
      -11  1    4    4    0    0 -4.1698130152e-02 -2.2850996122e-01 -2.9063744302e-01 3.7205634095e-01 5.1100000000e-04 0.0000e+00 -1.0000e+00
      255  1    4    4    0    0 -1.5837760516e+01 -1.1765363791e+02 -2.2260028245e+02 2.8154768498e+02 1.2500000000e+02 0.0000e+00 0.0000e+00
<mgrwt>
<rscale>  0 0.47964020E+03</rscale>
<asrwt>0</asrwt>
<pdfrwt beam="1">  1        2 0.25395340E+00 0.47964020E+03</pdfrwt>
<pdfrwt beam="2">  1       -2 0.53603162E-02 0.47964020E+03</pdfrwt>
<totfact> 0.19818851E+03</totfact>
</mgrwt>
</event>
<event>
 8      1 +1.6198320e-01 4.04262900e+02 7.81860800e-03 1.04231400e-01
        2 -1    0    0  501    0 +0.0000000000e+00 +0.0000000000e+00 +3.0759737147e+03 3.0759737147e+03 2.5500000000e-03 0.0000e+00 1.0000e+00
       -2 -1    0    0    0  501 -0.0000000000e+00 -0.0000000000e+00 -1.3282662718e+01 1.3282662962e+01 2.5500000000e-03 0.0000e+00 -1.0000e+00
  1000101  2    1    2    0    0 -1.1328945051e+02 -7.1986566914e+00 +6.8312368860e+02 7.0370043038e+02 1.2509996618e+02 4.0416e+01 0.0000e+00
 -1000101  2    1    2    0    0 +1.1328945051e+02 +7.1986566914e+00 +2.3795673634e+03 2.3855559473e+03 1.2510004191e+02 4.7926e+01 0.0000e+00
       11  1    3    3    0    0 -4.5632742505e-02 -8.1222051335e-02 +6.6511425827e-01 6.7160747947e-01 5.1100000000e-04 0.0000e+00 1.0000e+00
      255  1    3    3    0    0 -1.1324381776e+02 -7.1174346400e+00 +6.8245857434e+02 7.0302882290e+02 1.2500000000e+02 0.0000e+00 0.0000e+00
      -11  1    4    4    0    0 +3.3197682811e-02 -7.5017966596e-02 +6.8945050339e-01 6.9431407821e-01 5.1100000000e-04 0.0000e+00 -1.0000e+00
      255  1    4    4    0    0 +1.1325625282e+02 +7.2736746580e+00 +2.3788779129e+03 2.3848616332e+03 1.2500000000e+02 0.0000e+00 0.0000e+00
<mgrwt>
<rscale>  0 0.40426289E+03</rscale>
<asrwt>0</asrwt>
<pdfrwt beam="1">  1        2 0.47322701E+00 0.40426289E+03</pdfrwt>
<pdfrwt beam="2">  1       -2 0.20434854E-02 0.40426289E+03</pdfrwt>
<totfact> 0.13802148E+03</totfact>
</mgrwt>
</event>
<event>
 8      1 +1.6198320e-01 5.43167100e+02 7.81860800e-03 1.00308800e-01
       -2 -1    0    0    0  501 -0.0000000000e+00 +0.0000000000e+00 +7.2331696983e+01 7.2331697028e+01 2.5500000000e-03 0.0000e+00 -1.0000e+00
        2 -1    0    0  501    0 +0.0000000000e+00 -0.0000000000e+00 -1.0197135627e+03 1.0197135627e+03 2.5500000000e-03 0.0000e+00 1.0000e+00
  1000101  2    1    2    0    0 -1.0547065620e+02 +1.5030538367e+02 -7.8769113629e+02 8.1842709034e+02 1.2509919395e+02 8.3396e+01 0.0000e+00
 -1000101  2    1    2    0    0 +1.0547065620e+02 -1.5030538367e+02 -1.5969072938e+02 2.7361816935e+02 1.2509998348e+02 3.4310e+02 0.0000e+00
       11  1    3    3    0    0 -4.0550604893e-02 +1.6810912236e-01 -9.4844741080e-01 9.6408390753e-01 5.1100000000e-04 0.0000e+00 1.0000e+00
      255  1    3    3    0    0 -1.0543010560e+02 +1.5013727455e+02 -7.8674268888e+02 8.1746300643e+02 1.2500000000e+02 0.0000e+00 0.0000e+00
      -11  1    4    4    0    0 -2.2061201430e-02 -6.4802772506e-02 +6.8384298904e-03 6.8797682935e-02 5.1100000000e-04 0.0000e+00 -1.0000e+00
      255  1    4    4    0    0 +1.0549271740e+02 -1.5024058090e+02 -1.5969756781e+02 2.7354937167e+02 1.2500000000e+02 0.0000e+00 0.0000e+00
<mgrwt>
<rscale>  0 0.54316706E+03</rscale>
<asrwt>0</asrwt>
<pdfrwt beam="1">  1        2 0.15687900E+00 0.54316706E+03</pdfrwt>
<pdfrwt beam="2">  1       -2 0.11127954E-01 0.54316706E+03</pdfrwt>
<totfact> 0.14212317E+03</totfact>
</mgrwt>
</event>
<event>
 8      1 +1.6198320e-01 3.27065200e+02 7.81860800e-03 1.07244300e-01
       -1 -1    0    0    0  501 -0.0000000000e+00 +0.0000000000e+00 +4.2656296426e+01 4.2656296724e+01 5.0400000000e-03 0.0000e+00 -1.0000e+00
        1 -1    0    0  501    0 +0.0000000000e+00 -0.0000000000e+00 -6.2693951655e+02 6.2693951657e+02 5.0400000000e-03 0.0000e+00 1.0000e+00
  1000101  2    1    2    0    0 +3.8820023807e+01 -7.7305099961e+01 -4.1514655139e+02 4.4213091544e+02 1.2510001809e+02 1.3566e+02 0.0000e+00
 -1000101  2    1    2    0    0 -3.8820023807e+01 +7.7305099961e+01 -1.6913666873e+02 2.2746489785e+02 1.2509993732e+02 1.7455e+01 0.0000e+00
       11  1    3    3    0    0 -4.5381684044e-02 -4.6386578015e-02 -5.8600544678e-02 8.7438531692e-02 5.1100000000e-04 0.0000e+00 1.0000e+00
      255  1    3    3    0    0 +3.8865405491e+01 -7.7258713383e+01 -4.1508795085e+02 4.4204347691e+02 1.2500000000e+02 0.0000e+00 0.0000e+00
      -11  1    4    4    0    0 +7.0898091656e-02 +1.8221370866e-02 -8.8030783759e-02 1.1449121262e-01 5.1100000000e-04 0.0000e+00 -1.0000e+00
      255  1    4    4    0    0 -3.8890921899e+01 +7.7286878590e+01 -1.6904863795e+02 2.2735040664e+02 1.2500000000e+02 0.0000e+00 0.0000e+00
<mgrwt>
<rscale>  0 0.32706524E+03</rscale>
<asrwt>0</asrwt>
<pdfrwt beam="1">  1        1 0.96452227E-01 0.32706524E+03</pdfrwt>
<pdfrwt beam="2">  1       -1 0.65625076E-02 0.32706524E+03</pdfrwt>
<totfact> 0.38616872E+03</totfact>
</mgrwt>
</event>
<event>
 8      1 +1.6198320e-01 2.66665400e+02 7.81860800e-03 1.10320300e-01
        1 -1    0    0  501    0 +0.0000000000e+00 +0.0000000000e+00 +1.1326571944e+03 1.1326571944e+03 5.0400000000e-03 0.0000e+00 -1.0000e+00
       -1 -1    0    0    0  501 -0.0000000000e+00 -0.0000000000e+00 -1.5695485728e+01 1.5695486538e+01 5.0400000000e-03 0.0000e+00 1.0000e+00
  1000101  2    1    2    0    0 +1.5528486490e+01 +7.0401905781e+00 +7.4304688247e+02 7.5369702176e+02 1.2509929209e+02 1.5055e+02 0.0000e+00
 -1000101  2    1    2    0    0 -1.5528486490e+01 -7.0401905781e+00 +3.7391482615e+02 3.9465565914e+02 1.2510033533e+02 1.9901e+01 0.0000e+00
       11  1    3    3    0    0 +2.8083697490e-02 +1.1088457076e-02 +1.8541653670e-02 3.5435885580e-02 5.1100000000e-04 0.0000e+00 1.0000e+00
      255  1    3    3    0    0 +1.5500402793e+01 +7.0291021210e+00 +7.4302834082e+02 7.5366158588e+02 1.2500000000e+02 0.0000e+00 0.0000e+00
      -11  1    4    4    0    0 +1.7691093795e-02 +6.0918431598e-02 +4.9379795100e-01 4.9785611138e-01 5.1100000000e-04 0.0000e+00 -1.0000e+00
      255  1    4    4    0    0 -1.5546177584e+01 -7.1011090097e+00 +3.7342102820e+02 3.9415780303e+02 1.2500000000e+02 0.0000e+00 0.0000e+00
<mgrwt>
<rscale>  0 0.26666537E+03</rscale>
<asrwt>0</asrwt>
<pdfrwt beam="1">  1        1 0.17425499E+00 0.26666537E+03</pdfrwt>
<pdfrwt beam="2">  1       -1 0.24146897E-02 0.26666537E+03</pdfrwt>
<totfact> 0.66351029E+03</totfact>
</mgrwt>
</event>
<event>
 8      1 +1.6198320e-01 2.67732300e+02 7.81860800e-03 1.10258500e-01
        2 -1    0    0  501    0 +0.0000000000e+00 +0.0000000000e+00 +5.9674660254e+02 5.9674660255e+02 2.5500000000e-03 0.0000e+00 1.0000e+00
       -2 -1    0    0    0  501 -0.0000000000e+00 -0.0000000000e+00 -3.0029743942e+01 3.0029744050e+01 2.5500000000e-03 0.0000e+00 -1.0000e+00
  1000101  2    1    2    0    0 -5.9529686013e+00 -4.2204887848e+01 +2.3351233802e+02 2.6831840255e+02 1.2510021081e+02 1.6252e+02 0.0000e+00
 -1000101  2    1    2    0    0 +5.9529686013e+00 +4.2204887848e+01 +3.3320452058e+02 3.5845794404e+02 1.2510057843e+02 5.2453e+01 0.0000e+00
       11  1    3    3    0    0 +4.8500873894e-02 +5.9064505829e-03 +3.1558997613e-01 3.1935014495e-01 5.1100000000e-04 0.0000e+00 1.0000e+00
      255  1    3    3    0    0 -6.0014694752e+00 -4.2210794298e+01 +2.3319674805e+02 2.6799905241e+02 1.2500000000e+02 0.0000e+00 0.0000e+00
      -11  1    4    4    0    0 -7.3237124556e-02 +9.9039851415e-02 +3.3532908957e-01 3.5723721532e-01 5.1100000000e-04 0.0000e+00 -1.0000e+00
      255  1    4    4    0    0 +6.0262057258e+00 +4.2105847996e+01 +3.3286919149e+02 3.5810070683e+02 1.2500000000e+02 0.0000e+00 0.0000e+00
<mgrwt>
<rscale>  0 0.26773231E+03</rscale>
<asrwt>0</asrwt>
<pdfrwt beam="1">  1        2 0.91807166E-01 0.26773231E+03</pdfrwt>
<pdfrwt beam="2">  1       -2 0.46199608E-02 0.26773231E+03</pdfrwt>
<totfact> 0.11146065E+04</totfact>
</mgrwt>
</event>
<event>
 8      1 +1.6198320e-01 3.00525100e+02 7.81860800e-03 1.08497800e-01
        2 -1    0    0  501    0 +0.0000000000e+00 +0.0000000000e+00 +1.2813824111e+03 1.2813824111e+03 2.5500000000e-03 0.0000e+00 1.0000e+00
       -2 -1    0    0    0  501 -0.0000000000e+00 -0.0000000000e+00 -1.7620686631e+01 1.7620686815e+01 2.5500000000e-03 0.0000e+00 -1.0000e+00
  1000101  2    1    2    0    0 +2.8835824642e+01 +6.9732724290e+01 +7.8376272078e+02 7.9726291433e+02 1.2509993792e+02 9.2445e+01 0.0000e+00
 -1000101  2    1    2    0    0 -2.8835824642e+01 -6.9732724290e+01 +4.7999900374e+02 5.0174018363e+02 1.2510000265e+02 3.3054e+01 0.0000e+00
       11  1    3    3    0    0 +1.1646219687e-03 +1.5903317498e-01 +7.0855992052e-01 7.2618890736e-01 5.1100000000e-04 0.0000e+00 1.0000e+00
      255  1    3    3    0    0 +2.8834660020e+01 +6.9573691115e+01 +7.8305416086e+02 7.9653672542e+02 1.2500000000e+02 0.0000e+00 0.0000e+00
      -11  1    4    4    0    0 -4.0270179348e-02 +3.8698944010e-02 +7.4373299874e-02 9.3010453539e-02 5.1100000000e-04 0.0000e+00 -1.0000e+00
      255  1    4    4    0    0 -2.8795554463e+01 -6.9771423234e+01 +4.7992463044e+02 5.0164717318e+02 1.2500000000e+02 0.0000e+00 0.0000e+00
<mgrwt>
<rscale>  0 0.30052513E+03</rscale>
<asrwt>0</asrwt>
<pdfrwt beam="1">  1        2 0.19713573E+00 0.30052513E+03</pdfrwt>
<pdfrwt beam="2">  1       -2 0.27108752E-02 0.30052513E+03</pdfrwt>
<totfact> 0.88682435E+03</totfact>
</mgrwt>
</event>
<event>
 8      1 +1.6198320e-01 4.04618800e+02 7.81860800e-03 1.04219200e-01
       -1 -1    0    0    0  501 -0.0000000000e+00 +0.0000000000e+00 +3.6734819742e+01 3.6734820087e+01 5.0400000000e-03 0.0000e+00 -1.0000e+00
        1 -1    0    0  501    0 +0.0000000000e+00 -0.0000000000e+00 -1.1141773005e+03 1.1141773005e+03 5.0400000000e-03 0.0000e+00 1.0000e+00
  1000101  2    1    2    0    0 -1.3617669350e+00 +1.3729711487e+02 -3.1069158096e+02 3.6198290094e+02 1.2509999975e+02 2.0766e+00 0.0000e+00
 -1000101  2    1    2    0    0 +1.3617669350e+00 -1.3729711487e+02 -7.6675089978e+02 7.8892921963e+02 1.2510003642e+02 8.0934e+01 0.0000e+00
       11  1    3    3    0    0 -5.9763151613e-02 +7.5835245222e-02 -3.5814045025e-01 3.7092783926e-01 5.1100000000e-04 0.0000e+00 1.0000e+00
      255  1    3    3    0    0 -1.3020037834e+00 +1.3722127963e+02 -3.1033344051e+02 3.6161197311e+02 1.2500000000e+02 0.0000e+00 0.0000e+00
      -11  1    4    4    0    0 -8.4063715111e-02 -1.3310731350e-01 -4.7010346989e-01 4.9576385369e-01 5.1100000000e-04 0.0000e+00 -1.0000e+00
      255  1    4    4    0    0 +1.4458306501e+00 -1.3716400756e+02 -7.6628079631e+02 7.8843345577e+02 1.2500000000e+02 0.0000e+00 0.0000e+00
<mgrwt>
<rscale>  0 0.40461885E+03</rscale>
<asrwt>0</asrwt>
<pdfrwt beam="1">  1        1 0.17141187E+00 0.40461885E+03</pdfrwt>
<pdfrwt beam="2">  1       -1 0.56515116E-02 0.40461885E+03</pdfrwt>
<totfact> 0.19279770E+03</totfact>
</mgrwt>
</event>
<event>
 8      1 +1.6198320e-01 2.54431400e+02 7.81860800e-03 1.11053600e-01
       -1 -1    0    0    0  501 -0.0000000000e+00 +0.0000000000e+00 +1.1108803242e+01 1.1108804385e+01 5.0400000000e-03 0.0000e+00 1.0000e+00
        1 -1    0    0  501    0 +0.0000000000e+00 -0.0000000000e+00 -1.4568475341e+03 1.4568475341e+03 5.0400000000e-03 0.0000e+00 -1.0000e+00
  1000101  2    1    2    0    0 +1.7268964583e+01 +3.1636133462e+00 -8.0952298986e+02 8.1932025748e+02 1.2509991049e+02 9.6564e+01 0.0000e+00
 -1000101  2    1    2    0    0 -1.7268964583e+01 -3.1636133462e+00 -6.3621574101e+02 6.4863608103e+02 1.2510024349e+02 8.2476e+01 0.0000e+00
       11  1    3    3    0    0 +9.7014990385e-02 -5.1943364234e-02 -6.2335410789e-01 6.3299338574e-01 5.1100000000e-04 0.0000e+00 1.0000e+00
      255  1    3    3    0    0 +1.7171949592e+01 +3.2155567105e+00 -8.0889963576e+02 8.1868726409e+02 1.2500000000e+02 0.0000e+00 0.0000e+00
      -11  1    4    4    0    0 +7.8161915592e-02 +2.4871906350e-02 -6.0536721799e-01 6.1089903136e-01 5.1100000000e-04 0.0000e+00 -1.0000e+00
      255  1    4    4    0    0 -1.7347126498e+01 -3.1884852526e+00 -6.3561037379e+02 6.4802518200e+02 1.2500000000e+02 0.0000e+00 0.0000e+00
<mgrwt>
<rscale>  0 0.25443139E+03</rscale>
<asrwt>0</asrwt>
<pdfrwt beam="1">  1        1 0.22413024E+00 0.25443139E+03</pdfrwt>
<pdfrwt beam="2">  1       -1 0.17090479E-02 0.25443139E+03</pdfrwt>
<totfact> 0.65871714E+03</totfact>
</mgrwt>
</event>
<event>
 8      1 +1.6198320e-01 4.41606700e+02 7.81860800e-03 1.03025500e-01
       -2 -1    0    0    0  501 -0.0000000000e+00 +0.0000000000e+00 +2.4299907321e+01 2.4299907455e+01 2.5500000000e-03 0.0000e+00 -1.0000e+00
        2 -1    0    0  501    0 +0.0000000000e+00 -0.0000000000e+00 -2.0063496253e+03 2.0063496253e+03 2.5500000000e-03 0.0000e+00 1.0000e+00
  1000101  2    1    2    0    0 +2.0070655038e+01 -1.7775422494e+02 -8.3819042675e+02 8.6614813477e+02 1.2509997682e+02 3.3733e+01 0.0000e+00
 -1000101  2    1    2    0    0 -2.0070655038e+01 +1.7775422494e+02 -1.1438592912e+03 1.1645013980e+03 1.2510008832e+02 2.2968e+01 0.0000e+00
       11  1    3    3    0    0 -6.6708756469e-03 -3.0319718570e-01 -1.2179373299e+00 1.2551273381e+00 5.1100000000e-04 0.0000e+00 1.0000e+00
      255  1    3    3    0    0 +2.0077325913e+01 -1.7745102775e+02 -8.3697248942e+02 8.6489300744e+02 1.2500000000e+02 0.0000e+00 0.0000e+00
      -11  1    4    4    0    0 -8.2243218603e-03 +3.1081729730e-01 -1.6997957921e+00 1.7279991400e+00 5.1100000000e-04 0.0000e+00 -1.0000e+00
      255  1    4    4    0    0 -2.0062430716e+01 +1.7744340764e+02 -1.1421594954e+03 1.1627733988e+03 1.2500000000e+02 0.0000e+00 0.0000e+00
<mgrwt>
<rscale>  0 0.44160666E+03</rscale>
<asrwt>0</asrwt>
<pdfrwt beam="1">  1        2 0.30866904E+00 0.44160666E+03</pdfrwt>
<pdfrwt beam="2">  1       -2 0.37384489E-02 0.44160666E+03</pdfrwt>
<totfact> 0.22238824E+03</totfact>
</mgrwt>
</event>
<event>
 8      1 +1.6198320e-01 3.33996100e+02 7.81860800e-03 1.06938200e-01
       -1 -1    0    0    0  501 -0.0000000000e+00 +0.0000000000e+00 +9.9881083087e+01 9.9881083214e+01 5.0400000000e-03 0.0000e+00 -1.0000e+00
        1 -1    0    0  501    0 +0.0000000000e+00 -0.0000000000e+00 -2.7921556669e+02 2.7921556674e+02 5.0400000000e-03 0.0000e+00 1.0000e+00
  1000101  2    1    2    0    0 -2.7695208383e+00 -2.9899045626e+01 -2.1051877325e+02 2.4671801055e+02 1.2509995868e+02 2.2420e+02 0.0000e+00
 -1000101  2    1    2    0    0 +2.7695208383e+00 +2.9899045626e+01 +3.1184289648e+01 1.3237863941e+02 1.2510004426e+02 5.1115e+01 0.0000e+00
       11  1    3    3    0    0 +8.5247085410e-02 -3.4695753147e-03 -2.4223763324e-01 2.5682374423e-01 5.1100000000e-04 0.0000e+00 1.0000e+00
      255  1    3    3    0    0 -2.8547679237e+00 -2.9895576051e+01 -2.1027653562e+02 2.4646118680e+02 1.2500000000e+02 0.0000e+00 0.0000e+00
      -11  1    4    4    0    0 -8.9459294219e-02 +6.1135538944e-02 +4.2973273891e-02 1.1656535864e-01 5.1100000000e-04 0.0000e+00 -1.0000e+00
      255  1    4    4    0    0 +2.8589801325e+00 +2.9837910087e+01 +3.1141316374e+01 1.3226207405e+02 1.2500000000e+02 0.0000e+00 0.0000e+00
<mgrwt>
<rscale>  0 0.33399613E+03</rscale>
<asrwt>0</asrwt>
<pdfrwt beam="1">  1        1 0.42956241E-01 0.33399613E+03</pdfrwt>
<pdfrwt beam="2">  1       -1 0.15366321E-01 0.33399613E+03</pdfrwt>
<totfact> 0.29732381E+03</totfact>
</mgrwt>
</event>
<event>
 8      1 +1.6198320e-01 4.92412200e+02 7.81860800e-03 1.01577900e-01
       -2 -1    0    0    0  501 -0.0000000000e+00 +0.0000000000e+00 +3.1961044388e+01 3.1961044490e+01 2.5500000000e-03 0.0000e+00 -1.0000e+00
        2 -1    0    0  501    0 +0.0000000000e+00 -0.0000000000e+00 -1.8966041617e+03 1.8966041617e+03 2.5500000000e-03 0.0000e+00 1.0000e+00
  1000101  2    1    2    0    0 +1.1354012028e+02 -7.9144699274e+01 -1.5615643236e+03 1.5726691718e+03 1.2509974068e+02 2.7473e+01 0.0000e+00
 -1000101  2    1    2    0    0 -1.1354012028e+02 +7.9144699274e+01 -3.0307879372e+02 3.5589603431e+02 1.2509991887e+02 4.8197e+01 0.0000e+00
       11  1    3    3    0    0 +1.3881242479e-01 +2.2366250964e-02 -1.0293284960e+00 1.0388871701e+00 5.1100000000e-04 0.0000e+00 1.0000e+00
      255  1    3    3    0    0 +1.1340130786e+02 -7.9167065525e+01 -1.5605349951e+03 1.5716302847e+03 1.2500000000e+02 0.0000e+00 0.0000e+00
      -11  1    4    4    0    0 -6.5287260149e-02 -4.1505130260e-02 -6.0432795944e-02 9.8170698901e-02 5.1100000000e-04 0.0000e+00 -1.0000e+00
      255  1    4    4    0    0 -1.1347483302e+02 +7.9186204404e+01 -3.0301836092e+02 3.5579786361e+02 1.2500000000e+02 0.0000e+00 0.0000e+00
<mgrwt>
<rscale>  0 0.49241223E+03</rscale>
<asrwt>0</asrwt>
<pdfrwt beam="1">  1        2 0.29178517E+00 0.49241223E+03</pdfrwt>
<pdfrwt beam="2">  1       -2 0.49170852E-02 0.49241223E+03</pdfrwt>
<totfact> 0.16692920E+03</totfact>
</mgrwt>
</event>
<event>
 8      1 +1.6198320e-01 5.33502500e+02 7.81860800e-03 1.00538600e-01
        2 -1    0    0  501    0 +0.0000000000e+00 +0.0000000000e+00 +3.1750373505e+03 3.1750373505e+03 2.5500000000e-03 0.0000e+00 1.0000e+00
       -2 -1    0    0    0  501 -0.0000000000e+00 -0.0000000000e+00 -2.2411148378e+01 2.2411148523e+01 2.5500000000e-03 0.0000e+00 -1.0000e+00
  1000101  2    1    2    0    0 +8.6376120032e+01 +2.1453238389e+02 +1.8457620745e+03 1.8643960497e+03 1.2510002656e+02 1.5324e+02 0.0000e+00
 -1000101  2    1    2    0    0 -8.6376120032e+01 -2.1453238389e+02 +1.3068641277e+03 1.3330524494e+03 1.2509998690e+02 5.3295e+01 0.0000e+00
       11  1    3    3    0    0 +1.0386622066e-01 +3.4770090013e-01 +2.8676851065e+00 2.8905539675e+00 5.1100000000e-04 0.0000e+00 1.0000e+00
      255  1    3    3    0    0 +8.6272253811e+01 +2.1418468299e+02 +1.8428943893e+03 1.8615054957e+03 1.2500000000e+02 0.0000e+00 0.0000e+00
      -11  1    4    4    0    0 -4.0764541450e-02 -9.2553006132e-02 +2.1376984583e-01 2.3648597187e-01 5.1100000000e-04 0.0000e+00 -1.0000e+00
      255  1    4    4    0    0 -8.6335355491e+01 -2.1443983088e+02 +1.3066503578e+03 1.3328159634e+03 1.2500000000e+02 0.0000e+00 0.0000e+00
<mgrwt>
<rscale>  0 0.53350252E+03</rscale>
<asrwt>0</asrwt>
<pdfrwt beam="1">  1        2 0.48846740E+00 0.53350252E+03</pdfrwt>
<pdfrwt beam="2">  1       -2 0.34478682E-02 0.53350252E+03</pdfrwt>
<totfact> 0.53683606E+02</totfact>
</mgrwt>
</event>
<event>
 8      1 +1.6198320e-01 3.10480100e+02 7.81860800e-03 1.08011600e-01
        2 -1    0    0  501    0 +0.0000000000e+00 +0.0000000000e+00 +7.5597538392e+01 7.5597538435e+01 2.5500000000e-03 0.0000e+00 1.0000e+00
       -2 -1    0    0    0  501 -0.0000000000e+00 -0.0000000000e+00 -3.1878641504e+02 3.1878641505e+02 2.5500000000e-03 0.0000e+00 -1.0000e+00
  1000101  2    1    2    0    0 +1.9788726031e+01 +7.2646378971e+01 -1.8857229547e+02 2.3849281070e+02 1.2510083965e+02 6.6452e+00 0.0000e+00
 -1000101  2    1    2    0    0 -1.9788726031e+01 -7.2646378971e+01 -5.4616581174e+01 1.5589114278e+02 1.2509990969e+02 5.1738e+00 0.0000e+00
       11  1    3    3    0    0 -5.9670886388e-02 +1.2272023594e-01 -2.2594456768e-01 2.6395469266e-01 5.1100000000e-04 0.0000e+00 1.0000e+00
      255  1    3    3    0    0 +1.9848396917e+01 +7.2523658735e+01 -1.8834635091e+02 2.3822885601e+02 1.2500000000e+02 0.0000e+00 0.0000e+00
      -11  1    4    4    0    0 -6.2606012873e-02 +2.8822997807e-02 +1.2935015165e-02 7.0127411113e-02 5.1100000000e-04 0.0000e+00 -1.0000e+00
      255  1    4    4    0    0 -1.9726120018e+01 -7.2675201969e+01 -5.4629516189e+01 1.5582101537e+02 1.2500000000e+02 0.0000e+00 0.0000e+00
<mgrwt>
<rscale>  0 0.31048007E+03</rscale>
<asrwt>0</asrwt>
<pdfrwt beam="1">  1        2 0.11630391E-01 0.31048007E+03</pdfrwt>
<pdfrwt beam="2">  1       -2 0.49044063E-01 0.31048007E+03</pdfrwt>
<totfact> 0.21236924E+03</totfact>
</mgrwt>
</event>
<event>
 8      1 +1.6198320e-01 4.85040900e+02 7.81860800e-03 1.01775900e-01
        2 -1    0    0  501    0 +0.0000000000e+00 +0.0000000000e+00 +8.3178625656e+01 8.3178625695e+01 2.5500000000e-03 0.0000e+00 1.0000e+00
       -2 -1    0    0    0  501 -0.0000000000e+00 -0.0000000000e+00 -7.0710669708e+02 7.0710669708e+02 2.5500000000e-03 0.0000e+00 -1.0000e+00
  1000101  2    1    2    0    0 -1.6852870249e+02 -1.2045157151e+02 -2.8591384576e+02 3.7457612485e+02 1.2510012576e+02 8.3795e+01 0.0000e+00
 -1000101  2    1    2    0    0 +1.6852870249e+02 +1.2045157151e+02 -3.3801422566e+02 4.1570919793e+02 1.2510002339e+02 6.9399e+01 0.0000e+00
       11  1    3    3    0    0 -1.4511515961e-01 -2.0079675207e-01 -2.2117554111e-01 3.3210935894e-01 5.1100000000e-04 0.0000e+00 1.0000e+00
      255  1    3    3    0    0 -1.6838358733e+02 -1.2025077476e+02 -2.8569267022e+02 3.7424401549e+02 1.2500000000e+02 0.0000e+00 0.0000e+00
      -11  1    4    4    0    0 +7.9166061447e-02 +1.5459016223e-01 -1.5354626276e-01 2.3182342304e-01 5.1100000000e-04 0.0000e+00 -1.0000e+00
      255  1    4    4    0    0 +1.6844953643e+02 +1.2029698135e+02 -3.3786067940e+02 4.1547737451e+02 1.2500000000e+02 0.0000e+00 0.0000e+00
<mgrwt>
<rscale>  0 0.48504088E+03</rscale>
<asrwt>0</asrwt>
<pdfrwt beam="1">  1        2 0.12796712E-01 0.48504088E+03</pdfrwt>
<pdfrwt beam="2">  1       -2 0.10878564E+00 0.48504088E+03</pdfrwt>
<totfact> 0.33293813E+02</totfact>
</mgrwt>
</event>
<event>
 8      1 +1.6198320e-01 3.45921900e+02 7.81860800e-03 1.06430100e-01
        2 -1    0    0  501    0 +0.0000000000e+00 +0.0000000000e+00 +1.5330365447e+03 1.5330365447e+03 2.5500000000e-03 0.0000e+00 1.0000e+00
       -2 -1    0    0    0  501 -0.0000000000e+00 -0.0000000000e+00 -1.9513876311e+01 1.9513876477e+01 2.5500000000e-03 0.0000e+00 -1.0000e+00
  1000101  2    1    2    0    0 -4.6155055690e+01 +1.0418191124e+01 +1.2489597098e+03 1.2561007930e+03 1.2510003046e+02 2.5155e+02 0.0000e+00
 -1000101  2    1    2    0    0 +4.6155055690e+01 -1.0418191124e+01 +2.6456295855e+02 2.9644962813e+02 1.2509994049e+02 1.3083e+02 0.0000e+00
       11  1    3    3    0    0 -3.1260608297e-02 -9.0524210811e-03 +1.8912456699e+00 1.8915257379e+00 5.1100000000e-04 0.0000e+00 1.0000e+00
      255  1    3    3    0    0 -4.6123795082e+01 +1.0427243545e+01 +1.2470684641e+03 1.2542092673e+03 1.2500000000e+02 0.0000e+00 0.0000e+00
      -11  1    4    4    0    0 +1.8110209457e-02 +7.9893734940e-02 +8.5147062866e-02 1.1815782668e-01 5.1100000000e-04 0.0000e+00 -1.0000e+00
      255  1    4    4    0    0 +4.6136945481e+01 -1.0498084859e+01 +2.6447781149e+02 2.9633147031e+02 1.2500000000e+02 0.0000e+00 0.0000e+00
<mgrwt>
<rscale>  0 0.34592187E+03</rscale>
<asrwt>0</asrwt>
<pdfrwt beam="1">  1        2 0.23585181E+00 0.34592187E+03</pdfrwt>
<pdfrwt beam="2">  1       -2 0.30021344E-02 0.34592187E+03</pdfrwt>
<totfact> 0.55560176E+03</totfact>
</mgrwt>
</event>
<event>
 8      1 +1.6198320e-01 3.01416900e+02 7.81860800e-03 1.08453400e-01
        1 -1    0    0  501    0 +0.0000000000e+00 +0.0000000000e+00 +2.7249725049e+02 2.7249725053e+02 5.0400000000e-03 0.0000e+00 -1.0000e+00
       -1 -1    0    0    0  501 -0.0000000000e+00 -0.0000000000e+00 -8.3351415851e+01 8.3351416003e+01 5.0400000000e-03 0.0000e+00 1.0000e+00
  1000101  2    1    2    0    0 -6.1150351052e+00 -7.6278530580e+01 +5.3553523091e+01 1.5612114401e+02 1.2510005551e+02 1.9924e+01 0.0000e+00
 -1000101  2    1    2    0    0 +6.1150351052e+00 +7.6278530580e+01 +1.3559231154e+02 1.9972752253e+02 1.2509996173e+02 5.6578e+01 0.0000e+00
       11  1    3    3    0    0 -7.2764599670e-02 -7.8065090678e-02 -2.9978954603e-02 1.1085054888e-01 5.1100000000e-04 0.0000e+00 1.0000e+00
      255  1    3    3    0    0 -6.0422705055e+00 -7.6200465489e+01 +5.3583502046e+01 1.5601029346e+02 1.2500000000e+02 0.0000e+00 0.0000e+00
      -11  1    4    4    0    0 -4.6075762609e-02 +1.5299541926e-01 +1.9378895017e-01 2.5116726010e-01 5.1100000000e-04 0.0000e+00 -1.0000e+00
      255  1    4    4    0    0 +6.1611108678e+00 +7.6125535161e+01 +1.3539852259e+02 1.9947635527e+02 1.2500000000e+02 0.0000e+00 0.0000e+00
<mgrwt>
<rscale>  0 0.30141687E+03</rscale>
<asrwt>0</asrwt>
<pdfrwt beam="1">  1        1 0.41922654E-01 0.30141687E+03</pdfrwt>
<pdfrwt beam="2">  1       -1 0.12823295E-01 0.30141687E+03</pdfrwt>
<totfact> 0.40752872E+03</totfact>
</mgrwt>
</event>
<event>
 8      1 +1.6198320e-01 3.48630900e+02 7.81860800e-03 1.06317800e-01
        2 -1    0    0  501    0 +0.0000000000e+00 +0.0000000000e+00 +8.1685942069e+01 8.1685942109e+01 2.5500000000e-03 0.0000e+00 1.0000e+00
       -2 -1    0    0    0  501 -0.0000000000e+00 -0.0000000000e+00 -3.7198421235e+02 3.7198421236e+02 2.5500000000e-03 0.0000e+00 -1.0000e+00
  1000101  2    1    2    0    0 -6.6827228237e+00 -9.5340675180e+01 -4.7757570730e+01 1.6451531850e+02 1.2509996535e+02 6.9788e+01 0.0000e+00
 -1000101  2    1    2    0    0 +6.6827228237e+00 +9.5340675180e+01 -2.4254069955e+02 2.8915483597e+02 1.2510006035e+02 7.5724e+01 0.0000e+00
       11  1    3    3    0    0 +9.4350164932e-02 -8.0196877075e-02 -3.1516715609e-02 1.2777737358e-01 5.1100000000e-04 0.0000e+00 1.0000e+00
      255  1    3    3    0    0 -6.7770729886e+00 -9.5260478303e+01 -4.7726054014e+01 1.6438754112e+02 1.2500000000e+02 0.0000e+00 0.0000e+00
      -11  1    4    4    0    0 -8.3071712504e-02 +3.9707344768e-02 -2.2572146206e-01 2.4377863360e-01 5.1100000000e-04 0.0000e+00 -1.0000e+00
      255  1    4    4    0    0 +6.7657945362e+00 +9.5300967835e+01 -2.4231497809e+02 2.8891105734e+02 1.2500000000e+02 0.0000e+00 0.0000e+00
<mgrwt>
<rscale>  0 0.34863093E+03</rscale>
<asrwt>0</asrwt>
<pdfrwt beam="1">  1        2 0.12567068E-01 0.34863093E+03</pdfrwt>
<pdfrwt beam="2">  1       -2 0.57228339E-01 0.34863093E+03</pdfrwt>
<totfact> 0.14158227E+03</totfact>
</mgrwt>
</event>
<event>
 8      1 +1.6198320e-01 5.39998700e+02 7.81860800e-03 1.00383600e-01
        2 -1    0    0  501    0 +0.0000000000e+00 +0.0000000000e+00 +5.5108231054e+01 5.5108231113e+01 2.5500000000e-03 0.0000e+00 1.0000e+00
       -2 -1    0    0    0  501 -0.0000000000e+00 -0.0000000000e+00 -1.3228452117e+03 1.3228452117e+03 2.5500000000e-03 0.0000e+00 -1.0000e+00
  1000101  2    1    2    0    0 +2.1337931223e+02 -7.0859749373e+00 -9.0951533045e+02 9.4257576697e+02 1.2509995296e+02 1.3205e+02 0.0000e+00
 -1000101  2    1    2    0    0 -2.1337931223e+02 +7.0859749373e+00 -3.5822165020e+02 4.3537767585e+02 1.2510007204e+02 1.1636e+02 0.0000e+00
       11  1    3    3    0    0 +2.7998401546e-01 -9.0693806498e-02 -1.0376325569e+00 1.0785629326e+00 5.1100000000e-04 0.0000e+00 1.0000e+00
      255  1    3    3    0    0 +2.1309932821e+02 -6.9952811308e+00 -9.0847769789e+02 9.4149720404e+02 1.2500000000e+02 0.0000e+00 0.0000e+00
      -11  1    4    4    0    0 -5.1254896365e-02 +8.2149239879e-02 -1.2732189903e-01 1.5995839805e-01 5.1100000000e-04 0.0000e+00 -1.0000e+00
      255  1    4    4    0    0 -2.1332805733e+02 +7.0038256974e+00 -3.5809432830e+02 4.3521771745e+02 1.2500000000e+02 0.0000e+00 0.0000e+00
<mgrwt>
<rscale>  0 0.53999874E+03</rscale>
<asrwt>0</asrwt>
<pdfrwt beam="1">  1        2 0.84781904E-02 0.53999874E+03</pdfrwt>
<pdfrwt beam="2">  1       -2 0.20351462E+00 0.53999874E+03</pdfrwt>
<totfact> 0.10664097E+02</totfact>
</mgrwt>
</event>
<event>
 8      1 +1.6198320e-01 3.27879500e+02 7.81860800e-03 1.07207900e-01
       -2 -1    0    0    0  501 -0.0000000000e+00 +0.0000000000e+00 +6.5052460635e+01 6.5052460685e+01 2.5500000000e-03 0.0000e+00 -1.0000e+00
        2 -1    0    0  501    0 +0.0000000000e+00 -0.0000000000e+00 -4.1314716952e+02 4.1314716953e+02 2.5500000000e-03 0.0000e+00 1.0000e+00
  1000101  2    1    2    0    0 +8.2076215080e+00 +5.0175310857e+01 -3.0962359675e+02 3.3778948862e+02 1.2510012025e+02 1.0106e+01 0.0000e+00
 -1000101  2    1    2    0    0 -8.2076215080e+00 -5.0175310857e+01 -3.8471112139e+01 1.4041014160e+02 1.2510017795e+02 3.6168e+01 0.0000e+00
       11  1    3    3    0    0 +1.5523694164e-02 +1.3426894764e-01 -4.5006774768e-01 4.6992592396e-01 5.1100000000e-04 0.0000e+00 1.0000e+00
      255  1    3    3    0    0 +8.1920978138e+00 +5.0041041910e+01 -3.0917352900e+02 3.3731956270e+02 1.2500000000e+02 0.0000e+00 0.0000e+00
      -11  1    4    4    0    0 -1.0939273650e-02 -1.1426558542e-01 +3.6911286265e-02 1.2057775871e-01 5.1100000000e-04 0.0000e+00 -1.0000e+00
      255  1    4    4    0    0 -8.1966822343e+00 -5.0061045272e+01 -3.8508023425e+01 1.4028956384e+02 1.2500000000e+02 0.0000e+00 0.0000e+00
<mgrwt>
<rscale>  0 0.32787949E+03</rscale>
<asrwt>0</asrwt>
<pdfrwt beam="1">  1        2 0.63561101E-01 0.32787949E+03</pdfrwt>
<pdfrwt beam="2">  1       -2 0.10008071E-01 0.32787949E+03</pdfrwt>
<totfact> 0.51130746E+03</totfact>
</mgrwt>
</event>
<event>
 8      1 +1.6198320e-01 3.29713800e+02 7.81860800e-03 1.07126400e-01
       -2 -1    0    0    0  501 -0.0000000000e+00 +0.0000000000e+00 +5.8137383221e+01 5.8137383277e+01 2.5500000000e-03 0.0000e+00 1.0000e+00
        2 -1    0    0  501    0 +0.0000000000e+00 -0.0000000000e+00 -4.6747546134e+02 4.6747546135e+02 2.5500000000e-03 0.0000e+00 -1.0000e+00
  1000101  2    1    2    0    0 -8.1848152164e+01 +5.3933478227e+01 -2.7451740781e+02 3.1720323927e+02 1.2510055046e+02 2.5761e+01 0.0000e+00
 -1000101  2    1    2    0    0 +8.1848152164e+01 -5.3933478227e+01 -1.3482067031e+02 2.0840960536e+02 1.2510000150e+02 2.8740e+01 0.0000e+00
       11  1    3    3    0    0 -1.6917849262e-01 +1.1446633261e-01 -3.1759307262e-01 3.7761028133e-01 5.1100000000e-04 0.0000e+00 1.0000e+00
      255  1    3    3    0    0 -8.1678973671e+01 +5.3819011895e+01 -2.7419981474e+02 3.1682562899e+02 1.2500000000e+02 0.0000e+00 0.0000e+00
      -11  1    4    4    0    0 +5.5064309684e-02 -1.2583381172e-01 -2.0524564289e-01 2.4696611391e-01 5.1100000000e-04 0.0000e+00 -1.0000e+00
      255  1    4    4    0    0 +8.1793087854e+01 -5.3807644416e+01 -1.3461542467e+02 2.0816263925e+02 1.2500000000e+02 0.0000e+00 0.0000e+00
<mgrwt>
<rscale>  0 0.32971382E+03</rscale>
<asrwt>0</asrwt>
<pdfrwt beam="1">  1        2 0.71919299E-01 0.32971382E+03</pdfrwt>
<pdfrwt beam="2">  1       -2 0.89442131E-02 0.32971382E+03</pdfrwt>
<totfact> 0.53335673E+03</totfact>
</mgrwt>
</event>
<event>
 8      1 +1.6198320e-01 4.64653000e+02 7.81860800e-03 1.02344000e-01
       -2 -1    0    0    0  501 -0.0000000000e+00 +0.0000000000e+00 +8.7348017317e+02 8.7348017317e+02 2.5500000000e-03 0.0000e+00 -1.0000e+00
        2 -1    0    0  501    0 +0.0000000000e+00 -0.0000000000e+00 -6.1793730323e+01 6.1793730375e+01 2.5500000000e-03 0.0000e+00 1.0000e+00
  1000101  2    1    2    0    0 +8.1893991887e+01 -8.6056941054e+01 +7.1905413787e+02 7.3945985349e+02 1.2509835623e+02 4.4390e+02 0.0000e+00
 -1000101  2    1    2    0    0 -8.1893991887e+01 +8.6056941054e+01 +9.2632304978e+01 1.9581405005e+02 1.2509986116e+02 9.4318e+01 0.0000e+00
       11  1    3    3    0    0 -3.2447455481e-02 -5.3769806161e-03 +3.6400838625e-02 4.9061506924e-02 5.1100000000e-04 0.0000e+00 1.0000e+00
      255  1    3    3    0    0 +8.1926439343e+01 -8.6051564074e+01 +7.1901773703e+02 7.3941079199e+02 1.2500000000e+02 0.0000e+00 0.0000e+00
      -11  1    4    4    0    0 +3.8996219398e-02 +5.7942313159e-02 +9.4871332978e-02 1.1780852144e-01 5.1100000000e-04 0.0000e+00 -1.0000e+00
      255  1    4    4    0    0 -8.1932988107e+01 +8.5998998741e+01 +9.2537433645e+01 1.9569624153e+02 1.2500000000e+02 0.0000e+00 0.0000e+00
<mgrwt>
<rscale>  0 0.46465298E+03</rscale>
<asrwt>0</asrwt>
<pdfrwt beam="1">  1        2 0.95067277E-02 0.46465298E+03</pdfrwt>
<pdfrwt beam="2">  1       -2 0.13438157E+00 0.46465298E+03</pdfrwt>
<totfact> 0.28712140E+02</totfact>
</mgrwt>
</event>
<event>
 8      1 +1.6198320e-01 2.69641200e+02 7.81860800e-03 1.10148500e-01
        4 -1    0    0  501    0 +0.0000000000e+00 +0.0000000000e+00 +4.6224207083e+02 4.6224381547e+02 1.2700000000e+00 0.0000e+00 1.0000e+00
       -4 -1    0    0    0  501 -0.0000000000e+00 -0.0000000000e+00 -3.9310601029e+01 3.9331110501e+01 1.2700000000e+00 0.0000e+00 -1.0000e+00
  1000101  2    1    2    0    0 -4.0322054820e+00 +3.7556296797e+01 +2.7315520237e+02 3.0280443906e+02 1.2510007844e+02 1.6278e+02 0.0000e+00
 -1000101  2    1    2    0    0 +4.0322054820e+00 -3.7556296797e+01 +1.4977626743e+02 1.9877048691e+02 1.2510012818e+02 1.5546e+01 0.0000e+00
       11  1    3    3    0    0 -9.3792000226e-02 +3.4383800819e-03 +2.8588746751e-01 3.0089976232e-01 5.1100000000e-04 0.0000e+00 1.0000e+00
      255  1    3    3    0    0 -3.9384134818e+00 +3.7552858416e+01 +2.7286931490e+02 3.0250353930e+02 1.2500000000e+02 0.0000e+00 0.0000e+00
      -11  1    4    4    0    0 +1.9615642218e-02 +4.5085559260e-02 -6.9226121830e-03 4.9655460467e-02 5.1100000000e-04 0.0000e+00 -1.0000e+00
      255  1    4    4    0    0 +4.0125898398e+00 -3.7601382356e+01 +1.4978319004e+02 1.9872083145e+02 1.2500000000e+02 0.0000e+00 0.0000e+00
<mgrwt>
<rscale>  0 0.26964120E+03</rscale>
<asrwt>0</asrwt>
<pdfrwt beam="1">  1        4 0.71115876E-01 0.26964120E+03</pdfrwt>
<pdfrwt beam="2">  1       -4 0.60494966E-02 0.26964120E+03</pdfrwt>
<totfact> 0.60283854E+02</totfact>
</mgrwt>
</event>
<event>
 8      1 +1.6198320e-01 2.50724300e+02 7.81860800e-03 1.11284800e-01
        1 -1    0    0  501    0 +0.0000000000e+00 +0.0000000000e+00 +8.9068123013e+02 8.9068123015e+02 5.0400000000e-03 0.0000e+00 -1.0000e+00
       -1 -1    0    0    0  501 -0.0000000000e+00 -0.0000000000e+00 -1.7644550906e+01 1.7644551626e+01 5.0400000000e-03 0.0000e+00 1.0000e+00
  1000101  2    1    2    0    0 +7.5124857719e-01 -7.7605394556e+00 +4.4456152747e+02 4.6189366042e+02 1.2510000592e+02 4.9659e+01 0.0000e+00
 -1000101  2    1    2    0    0 -7.5124857719e-01 +7.7605394556e+00 +4.2847515175e+02 4.4643212135e+02 1.2509953221e+02 5.8011e+00 0.0000e+00
       11  1    3    3    0    0 -3.1150080014e-02 +1.0653125158e-02 +7.1043865371e-03 3.3683081661e-02 5.1100000000e-04 0.0000e+00 1.0000e+00
      255  1    3    3    0    0 +7.8239865721e-01 -7.7711925808e+00 +4.4455442309e+02 4.6185997734e+02 1.2500000000e+02 0.0000e+00 0.0000e+00
      -11  1    4    4    0    0 -9.7370911149e-02 +2.2841075487e-02 +2.8905298495e-01 3.0586712523e-01 5.1100000000e-04 0.0000e+00 -1.0000e+00
      255  1    4    4    0    0 -6.5387766605e-01 +7.7376983801e+00 +4.2818609877e+02 4.4612625423e+02 1.2500000000e+02 0.0000e+00 0.0000e+00
<mgrwt>
<rscale>  0 0.25072432E+03</rscale>
<asrwt>0</asrwt>
<pdfrwt beam="1">  1        1 0.13702786E+00 0.25072432E+03</pdfrwt>
<pdfrwt beam="2">  1       -1 0.27145468E-02 0.25072432E+03</pdfrwt>
<totfact> 0.84520329E+03</totfact>
</mgrwt>
</event>
<event>
 8      1 +1.6198320e-01 4.87487800e+02 7.81860800e-03 1.01709700e-01
        2 -1    0    0  501    0 +0.0000000000e+00 +0.0000000000e+00 +1.8825874298e+02 1.8825874299e+02 2.5500000000e-03 0.0000e+00 1.0000e+00
       -2 -1    0    0    0  501 -0.0000000000e+00 -0.0000000000e+00 -3.1558213132e+02 3.1558213133e+02 2.5500000000e-03 0.0000e+00 -1.0000e+00
  1000101  2    1    2    0    0 -3.9466240687e+01 -1.3615049493e+02 -2.2266161386e+02 2.9210056551e+02 1.2509997867e+02 3.1886e+01 0.0000e+00
 -1000101  2    1    2    0    0 +3.9466240687e+01 +1.3615049493e+02 +9.5338225511e+01 2.1174030881e+02 1.2510011875e+02 3.2682e+01 0.0000e+00
       11  1    3    3    0    0 -1.0446927927e-02 -7.8205178039e-02 +2.2706525526e-03 7.8934182451e-02 5.1100000000e-04 0.0000e+00 1.0000e+00
      255  1    3    3    0    0 -3.9455793759e+01 -1.3607228975e+02 -2.2266388451e+02 2.9202163133e+02 1.2500000000e+02 0.0000e+00 0.0000e+00
      -11  1    4    4    0    0 +3.6736733034e-02 -2.6340218669e-02 -7.2333956946e-03 4.5781850204e-02 5.1100000000e-04 0.0000e+00 -1.0000e+00
      255  1    4    4    0    0 +3.9429503954e+01 +1.3617683514e+02 +9.5345458907e+01 2.1169452696e+02 1.2500000000e+02 0.0000e+00 0.0000e+00
<mgrwt>
<rscale>  0 0.48748783E+03</rscale>
<asrwt>0</asrwt>
<pdfrwt beam="1">  1        2 0.28962883E-01 0.48748783E+03</pdfrwt>
<pdfrwt beam="2">  1       -2 0.48551097E-01 0.48748783E+03</pdfrwt>
<totfact> 0.74769066E+02</totfact>
</mgrwt>
</event>
<event>
 8      1 +1.6198320e-01 3.07649100e+02 7.81860800e-03 1.08147800e-01
       -3 -1    0    0    0  501 -0.0000000000e+00 +0.0000000000e+00 +3.0229648234e+02 3.0229649922e+02 1.0100000000e-01 0.0000e+00 -1.0000e+00
        3 -1    0    0  501    0 +0.0000000000e+00 -0.0000000000e+00 -7.8274064670e+01 7.8274129832e+01 1.0100000000e-01 0.0000e+00 1.0000e+00
  1000101  2    1    2    0    0 -3.9648153672e+01 -7.0115561889e+01 +1.6030036769e+02 2.1871066999e+02 1.2509988481e+02 4.8073e+01 0.0000e+00
 -1000101  2    1    2    0    0 +3.9648153672e+01 +7.0115561889e+01 +6.3722049985e+01 1.6185995906e+02 1.2509987443e+02 6.6039e+01 0.0000e+00
       11  1    3    3    0    0 +2.9104506467e-02 -3.7501498470e-03 -2.2173925221e-02 3.6784235778e-02 5.1100000000e-04 0.0000e+00 1.0000e+00
      255  1    3    3    0    0 -3.9677258178e+01 -7.0111811740e+01 +1.6032254161e+02 2.1867388576e+02 1.2500000000e+02 0.0000e+00 0.0000e+00
      -11  1    4    4    0    0 +3.5133388959e-02 +8.4565460888e-02 +1.6217977489e-01 1.8624771864e-01 5.1100000000e-04 0.0000e+00 -1.0000e+00
      255  1    4    4    0    0 +3.9613020283e+01 +7.0030996429e+01 +6.3559870210e+01 1.6167371134e+02 1.2500000000e+02 0.0000e+00 0.0000e+00
<mgrwt>
<rscale>  0 0.30764909E+03</rscale>
<asrwt>0</asrwt>
<pdfrwt beam="1">  1        3 0.12042170E-01 0.30764909E+03</pdfrwt>
<pdfrwt beam="2">  1       -3 0.46507157E-01 0.30764909E+03</pdfrwt>
<totfact> 0.64032879E+02</totfact>
</mgrwt>
</event>
<event>
 8      1 +1.6198320e-01 3.40211300e+02 7.81860800e-03 1.06670600e-01
        3 -1    0    0  501    0 +0.0000000000e+00 +0.0000000000e+00 +5.0018334660e+02 5.0018335680e+02 1.0100000000e-01 0.0000e+00 1.0000e+00
       -3 -1    0    0    0  501 -0.0000000000e+00 -0.0000000000e+00 -5.7850583650e+01 5.7850671817e+01 1.0100000000e-01 0.0000e+00 -1.0000e+00
  1000101  2    1    2    0    0 +9.4214824103e+01 -5.9002874581e+01 +1.7119427974e+02 2.3940601158e+02 1.2509989877e+02 1.9743e+01 0.0000e+00
 -1000101  2    1    2    0    0 -9.4214824103e+01 +5.9002874581e+01 +2.7113848321e+02 3.1862801704e+02 1.2509981565e+02 4.7533e+01 0.0000e+00
       11  1    3    3    0    0 -8.6079268975e-03 -7.5857606889e-02 +1.4224111148e-02 7.7659895618e-02 5.1100000000e-04 0.0000e+00 1.0000e+00
      255  1    3    3    0    0 +9.4223432030e+01 -5.8927016974e+01 +1.7118005563e+02 2.3932835168e+02 1.2500000000e+02 0.0000e+00 0.0000e+00
      -11  1    4    4    0    0 -6.0906246639e-02 +8.4510659334e-02 +5.0407154798e-02 1.1572711349e-01 5.1100000000e-04 0.0000e+00 -1.0000e+00
      255  1    4    4    0    0 -9.4153917857e+01 +5.8918363921e+01 +2.7108807606e+02 3.1851228993e+02 1.2500000000e+02 0.0000e+00 0.0000e+00
<mgrwt>
<rscale>  0 0.34021126E+03</rscale>
<asrwt>0</asrwt>
<pdfrwt beam="1">  1        3 0.76951293E-01 0.34021126E+03</pdfrwt>
<pdfrwt beam="2">  1       -3 0.89000972E-02 0.34021126E+03</pdfrwt>
<totfact> 0.37542373E+02</totfact>
</mgrwt>
</event>
<event>
 8      1 +1.6198320e-01 2.92917800e+02 7.81860800e-03 1.08883500e-01
       -2 -1    0    0    0  501 -0.0000000000e+00 +0.0000000000e+00 +3.7843889252e+01 3.7843889338e+01 2.5500000000e-03 0.0000e+00 -1.0000e+00
        2 -1    0    0  501    0 +0.0000000000e+00 -0.0000000000e+00 -5.6680779857e+02 5.6680779857e+02 2.5500000000e-03 0.0000e+00 1.0000e+00
  1000101  2    1    2    0    0 +5.8822919924e+01 +4.2347416574e+01 -2.1621484037e+02 2.6010063497e+02 1.2510013396e+02 1.3884e+02 0.0000e+00
 -1000101  2    1    2    0    0 -5.8822919924e+01 -4.2347416574e+01 -3.1274906895e+02 3.4455105294e+02 1.2509999343e+02 1.2476e+02 0.0000e+00
       11  1    3    3    0    0 -4.1605096794e-02 +7.3798077249e-02 -7.5323198478e-02 1.1336218785e-01 5.1100000000e-04 0.0000e+00 1.0000e+00
      255  1    3    3    0    0 +5.8864525021e+01 +4.2273618497e+01 -2.1613951717e+02 2.5998727278e+02 1.2500000000e+02 0.0000e+00 0.0000e+00
      -11  1    4    4    0    0 -1.4614530358e-01 -1.9049924390e-03 -2.9296014564e-01 3.2739576481e-01 5.1100000000e-04 0.0000e+00 -1.0000e+00
      255  1    4    4    0    0 -5.8676774621e+01 -4.2345511582e+01 -3.1245610880e+02 3.4422365718e+02 1.2500000000e+02 0.0000e+00 0.0000e+00
<mgrwt>
<rscale>  0 0.29291781E+03</rscale>
<asrwt>0</asrwt>
<pdfrwt beam="1">  1        2 0.87201194E-01 0.29291781E+03</pdfrwt>
<pdfrwt beam="2">  1       -2 0.58221372E-02 0.29291781E+03</pdfrwt>
<totfact> 0.83426730E+03</totfact>
</mgrwt>
</event>
<event>
 8      1 +1.6198320e-01 2.87569400e+02 7.81860800e-03 1.09162500e-01
        2 -1    0    0  501    0 +0.0000000000e+00 +0.0000000000e+00 +6.7820592771e+02 6.7820592772e+02 2.5500000000e-03 0.0000e+00 1.0000e+00
       -2 -1    0    0    0  501 -0.0000000000e+00 -0.0000000000e+00 -3.0483432342e+01 3.0483432449e+01 2.5500000000e-03 0.0000e+00 -1.0000e+00
  1000101  2    1    2    0    0 +5.6441128999e+01 +3.3480031780e+01 +2.5784859706e+02 2.9401091348e+02 1.2509997870e+02 1.3168e+02 0.0000e+00
 -1000101  2    1    2    0    0 -5.6441128999e+01 -3.3480031780e+01 +3.8987389831e+02 4.1467844669e+02 1.2510013585e+02 7.9944e+01 0.0000e+00
       11  1    3    3    0    0 +9.1204302126e-02 +1.2469772803e-01 +2.8287034890e-01 3.2230985637e-01 5.1100000000e-04 0.0000e+00 1.0000e+00
      255  1    3    3    0    0 +5.6349924697e+01 +3.3355334052e+01 +2.5756572671e+02 2.9368860362e+02 1.2500000000e+02 0.0000e+00 0.0000e+00
      -11  1    4    4    0    0 -1.3314985081e-01 +2.0617779326e-02 +3.0596923717e-01 3.3432231576e-01 5.1100000000e-04 0.0000e+00 -1.0000e+00
      255  1    4    4    0    0 -5.6307979148e+01 -3.3500649560e+01 +3.8956792908e+02 4.1434412437e+02 1.2500000000e+02 0.0000e+00 0.0000e+00
<mgrwt>
<rscale>  0 0.28756943E+03</rscale>
<asrwt>0</asrwt>
<pdfrwt beam="1">  1        2 0.10433937E+00 0.28756943E+03</pdfrwt>
<pdfrwt beam="2">  1       -2 0.46897591E-02 0.28756943E+03</pdfrwt>
<totfact> 0.93924930E+03</totfact>
</mgrwt>
</event>
<event>
 8      1 +1.6198320e-01 2.78694300e+02 7.81860800e-03 1.09640400e-01
       -1 -1    0    0    0  501 -0.0000000000e+00 +0.0000000000e+00 +4.9554002910e+02 4.9554002912e+02 5.0400000000e-03 0.0000e+00 1.0000e+00
        1 -1    0    0  501    0 +0.0000000000e+00 -0.0000000000e+00 -3.9184779725e+01 3.9184780049e+01 5.0400000000e-03 0.0000e+00 -1.0000e+00
  1000101  2    1    2    0    0 +1.4811590592e+01 +5.1039722636e+01 +1.6925280768e+02 2.1707360919e+02 1.2509996962e+02 2.2089e+01 0.0000e+00
 -1000101  2    1    2    0    0 -1.4811590592e+01 -5.1039722636e+01 +2.8710244170e+02 3.1765119998e+02 1.2510010519e+02 6.6568e+01 0.0000e+00
       11  1    3    3    0    0 -7.1802080606e-02 +3.0849392535e-02 +3.0901818129e-02 8.4038129945e-02 5.1100000000e-04 0.0000e+00 1.0000e+00
      255  1    3    3    0    0 +1.4883392673e+01 +5.1008873244e+01 +1.6922190586e+02 2.1698957106e+02 1.2500000000e+02 0.0000e+00 0.0000e+00
      -11  1    4    4    0    0 -2.6625120980e-02 +5.6895633848e-02 +6.5755616992e-02 9.0939939003e-02 5.1100000000e-04 0.0000e+00 -1.0000e+00
      255  1    4    4    0    0 -1.4784965472e+01 -5.1096618270e+01 +2.8703668608e+02 3.1756026004e+02 1.2500000000e+02 0.0000e+00 0.0000e+00
<mgrwt>
<rscale>  0 0.27869429E+03</rscale>
<asrwt>0</asrwt>
<pdfrwt beam="1">  1        1 0.60284280E-02 0.27869429E+03</pdfrwt>
<pdfrwt beam="2">  1       -1 0.76236924E-01 0.27869429E+03</pdfrwt>
<totfact> 0.23102437E+03</totfact>
</mgrwt>
</event>
<event>
 8      1 +1.6198320e-01 2.65570800e+02 7.81860800e-03 1.10384200e-01
       -2 -1    0    0    0  501 -0.0000000000e+00 +0.0000000000e+00 +2.9013477417e+02 2.9013477419e+02 2.5500000000e-03 0.0000e+00 -1.0000e+00
        2 -1    0    0  501    0 +0.0000000000e+00 -0.0000000000e+00 -6.0771646973e+01 6.0771647026e+01 2.5500000000e-03 0.0000e+00 1.0000e+00
  1000101  2    1    2    0    0 -1.5617041072e+01 -4.1100848868e+01 +1.0545368863e+02 1.6942157467e+02 1.2510003105e+02 4.5156e+01 0.0000e+00
 -1000101  2    1    2    0    0 +1.5617041072e+01 +4.1100848868e+01 +1.2390943858e+02 1.8148484654e+02 1.2510007516e+02 1.6194e+02 0.0000e+00
       11  1    3    3    0    0 +2.3993665090e-02 -9.0525496809e-02 +1.1327055326e-04 9.3652738822e-02 5.1100000000e-04 0.0000e+00 1.0000e+00
      255  1    3    3    0    0 -1.5641034737e+01 -4.1010323371e+01 +1.0545357536e+02 1.6932792193e+02 1.2500000000e+02 0.0000e+00 0.0000e+00
      -11  1    4    4    0    0 +2.7605242961e-02 +1.3670677135e-01 +1.4753228531e-01 2.0301927766e-01 5.1100000000e-04 0.0000e+00 -1.0000e+00
      255  1    4    4    0    0 +1.5589435829e+01 +4.0964142097e+01 +1.2376190629e+02 1.8128182726e+02 1.2500000000e+02 0.0000e+00 0.0000e+00
<mgrwt>
<rscale>  0 0.26557084E+03</rscale>
<asrwt>0</asrwt>
<pdfrwt beam="1">  1        2 0.93494841E-02 0.26557084E+03</pdfrwt>
<pdfrwt beam="2">  1       -2 0.44636119E-01 0.26557084E+03</pdfrwt>
<totfact> 0.33366199E+03</totfact>
</mgrwt>
</event>
<event>
 8      1 +1.6198320e-01 3.01485300e+02 7.81860800e-03 1.08450000e-01
       -1 -1    0    0    0  501 -0.0000000000e+00 +0.0000000000e+00 +1.0249954628e+01 1.0249955867e+01 5.0400000000e-03 0.0000e+00 -1.0000e+00
        1 -1    0    0  501    0 +0.0000000000e+00 -0.0000000000e+00 -2.2169222278e+03 2.2169222279e+03 5.0400000000e-03 0.0000e+00 1.0000e+00
  1000101  2    1    2    0    0 +5.8924184458e+01 -5.5439313999e+01 -1.2730466147e+03 1.2817344754e+03 1.2509998032e+02 4.9899e+01 0.0000e+00
 -1000101  2    1    2    0    0 -5.8924184458e+01 +5.5439313999e+01 -9.3362565850e+02 9.4543770834e+02 1.2510001236e+02 2.7737e+01 0.0000e+00
       11  1    3    3    0    0 +2.3717016598e-02 +6.3248283721e-02 -4.4614402656e-01 4.5122898381e-01 5.1100000000e-04 0.0000e+00 1.0000e+00
      255  1    3    3    0    0 +5.8900467442e+01 -5.5502562283e+01 -1.2726004707e+03 1.2812832464e+03 1.2500000000e+02 0.0000e+00 0.0000e+00
      -11  1    4    4    0    0 -1.1263364775e-01 -2.9290350313e-02 -8.4390114985e-01 8.5188829965e-01 5.1100000000e-04 0.0000e+00 -1.0000e+00
      255  1    4    4    0    0 -5.8811550811e+01 +5.5468604350e+01 -9.3278175735e+02 9.4458582004e+02 1.2500000000e+02 0.0000e+00 0.0000e+00
<mgrwt>
<rscale>  0 0.30148535E+03</rscale>
<asrwt>0</asrwt>
<pdfrwt beam="1">  1        1 0.34106458E+00 0.30148535E+03</pdfrwt>
<pdfrwt beam="2">  1       -1 0.15769180E-02 0.30148535E+03</pdfrwt>
<totfact> 0.23618157E+03</totfact>
</mgrwt>
</event>
<event>
 8      1 +1.6198320e-01 3.50302600e+02 7.81860800e-03 1.06249100e-01
        2 -1    0    0  501    0 +0.0000000000e+00 +0.0000000000e+00 +5.9505676421e+01 5.9505676476e+01 2.5500000000e-03 0.0000e+00 1.0000e+00
       -2 -1    0    0    0  501 -0.0000000000e+00 -0.0000000000e+00 -5.1554705289e+02 5.1554705290e+02 2.5500000000e-03 0.0000e+00 -1.0000e+00
  1000101  2    1    2    0    0 +1.1700629322e+02 +7.5298534268e+00 -1.6927087215e+02 2.4093528671e+02 1.2510001150e+02 1.3186e+02 0.0000e+00
 -1000101  2    1    2    0    0 -1.1700629322e+02 -7.5298534268e+00 -2.8677050432e+02 3.3411744266e+02 1.2509984811e+02 8.0904e+01 0.0000e+00
       11  1    3    3    0    0 +2.3210792866e-02 +4.7241432758e-02 +1.4366155248e-02 5.4563187337e-02 5.1100000000e-04 0.0000e+00 1.0000e+00
      255  1    3    3    0    0 +1.1698308243e+02 +7.4826119940e+00 -1.6928523830e+02 2.4088072352e+02 1.2500000000e+02 0.0000e+00 0.0000e+00
      -11  1    4    4    0    0 +9.2492864568e-03 -1.3603193637e-02 -2.3902541730e-01 2.3959133418e-01 5.1100000000e-04 0.0000e+00 -1.0000e+00
      255  1    4    4    0    0 -1.1701554251e+02 -7.5162502331e+00 -2.8653147890e+02 3.3387785133e+02 1.2500000000e+02 0.0000e+00 0.0000e+00
<mgrwt>
<rscale>  0 0.35030259E+03</rscale>
<asrwt>0</asrwt>
<pdfrwt beam="1">  1        2 0.91547198E-02 0.35030259E+03</pdfrwt>
<pdfrwt beam="2">  1       -2 0.79314928E-01 0.35030259E+03</pdfrwt>
<totfact> 0.10454299E+03</totfact>
</mgrwt>
</event>
<event>
 8      1 +1.6198320e-01 6.40111900e+02 7.81860800e-03 9.82551300e-02
       -2 -1    0    0    0  501 -0.0000000000e+00 +0.0000000000e+00 +1.2925733405e+02 1.2925733407e+02 2.5500000000e-03 0.0000e+00 -1.0000e+00
        2 -1    0    0  501    0 +0.0000000000e+00 -0.0000000000e+00 -7.9249507592e+02 7.9249507592e+02 2.5500000000e-03 0.0000e+00 1.0000e+00
  1000101  2    1    2    0    0 -8.8195224205e+01 -2.8080602116e+02 -3.1366925678e+02 4.4796075190e+02 1.2510001403e+02 9.8613e+01 0.0000e+00
 -1000101  2    1    2    0    0 +8.8195224205e+01 +2.8080602116e+02 -3.4956848509e+02 4.7379165809e+02 1.2509992172e+02 8.4133e+01 0.0000e+00
       11  1    3    3    0    0 -1.8437355821e-01 -3.5978637843e-01 -4.4813782052e-01 6.0354586766e-01 5.1100000000e-04 0.0000e+00 1.0000e+00
      255  1    3    3    0    0 -8.8010850647e+01 -2.8044623478e+02 -3.1322111896e+02 4.4735720604e+02 1.2500000000e+02 0.0000e+00 0.0000e+00
      -11  1    4    4    0    0 +3.3992121042e-02 +1.0496050166e-02 +4.1952018462e-03 3.5825859396e-02 5.1100000000e-04 0.0000e+00 -1.0000e+00
      255  1    4    4    0    0 +8.8161232084e+01 +2.8079552511e+02 -3.4957268029e+02 4.7375583223e+02 1.2500000000e+02 0.0000e+00 0.0000e+00
<mgrwt>
<rscale>  0 0.64011187E+03</rscale>
<asrwt>0</asrwt>
<pdfrwt beam="1">  1        2 0.12192232E+00 0.64011187E+03</pdfrwt>
<pdfrwt beam="2">  1       -2 0.19885744E-01 0.64011187E+03</pdfrwt>
<totfact> 0.75624010E+02</totfact>
</mgrwt>
</event>
<event>
 8      1 +1.6198320e-01 3.73603700e+02 7.81860800e-03 1.05332300e-01
       -1 -1    0    0    0  501 -0.0000000000e+00 +0.0000000000e+00 +1.6834636305e+01 1.6834637059e+01 5.0400000000e-03 0.0000e+00 -1.0000e+00
        1 -1    0    0  501    0 +0.0000000000e+00 -0.0000000000e+00 -2.0728061915e+03 2.0728061915e+03 5.0400000000e-03 0.0000e+00 1.0000e+00
  1000101  2    1    2    0    0 +7.1923374109e+01 -9.6903066173e+01 -6.4527632955e+02 6.6827742864e+02 1.2509997674e+02 7.0892e+01 0.0000e+00
 -1000101  2    1    2    0    0 -7.1923374109e+01 +9.6903066173e+01 -1.4106952256e+03 1.4213633999e+03 1.2509883693e+02 1.4997e+02 0.0000e+00
       11  1    3    3    0    0 +9.0061558385e-02 -6.4903873942e-03 -6.7876940285e-01 6.8474913128e-01 5.1100000000e-04 0.0000e+00 1.0000e+00
      255  1    3    3    0    0 +7.1833312550e+01 -9.6896575785e+01 -6.4459756015e+02 6.6759267951e+02 1.2500000000e+02 0.0000e+00 0.0000e+00
      -11  1    4    4    0    0 +3.2973520191e-02 +5.0548052867e-02 -1.9819990770e-01 2.0718548023e-01 5.1100000000e-04 0.0000e+00 -1.0000e+00
      255  1    4    4    0    0 -7.1956347629e+01 +9.6852518120e+01 -1.4104970257e+03 1.4211562144e+03 1.2500000000e+02 0.0000e+00 0.0000e+00
<mgrwt>
<rscale>  0 0.37360374E+03</rscale>
<asrwt>0</asrwt>
<pdfrwt beam="1">  1        1 0.31889306E+00 0.37360374E+03</pdfrwt>
<pdfrwt beam="2">  1       -1 0.25899457E-02 0.37360374E+03</pdfrwt>
<totfact> 0.14084006E+03</totfact>
</mgrwt>
</event>
<event>
 8      1 +1.6198320e-01 4.17351300e+02 7.81860800e-03 1.03793200e-01
        3 -1    0    0  501    0 +0.0000000000e+00 +0.0000000000e+00 +3.1597297627e+02 3.1597299241e+02 1.0100000000e-01 0.0000e+00 1.0000e+00
       -3 -1    0    0    0  501 -0.0000000000e+00 -0.0000000000e+00 -1.3781404088e+02 1.3781407789e+02 1.0100000000e-01 0.0000e+00 -1.0000e+00
  1000101  2    1    2    0    0 -5.8015348055e+01 +6.1343911854e+01 +2.4576679933e+02 2.8840975167e+02 1.2509999630e+02 3.3885e+01 0.0000e+00
 -1000101  2    1    2    0    0 +5.8015348055e+01 -6.1343911854e+01 -6.7607863944e+01 1.6537731863e+02 1.2509987258e+02 8.0156e+01 0.0000e+00
       11  1    3    3    0    0 +3.5358485423e-02 +6.3586656070e-02 +2.7190557776e-01 2.8147182747e-01 5.1100000000e-04 0.0000e+00 1.0000e+00
      255  1    3    3    0    0 -5.8050706541e+01 +6.1280325198e+01 +2.4549489376e+02 2.8812827984e+02 1.2500000000e+02 0.0000e+00 0.0000e+00
      -11  1    4    4    0    0 +6.8419677087e-02 +1.3669453370e-02 -1.3011505985e-01 1.4764246032e-01 5.1100000000e-04 0.0000e+00 -1.0000e+00
      255  1    4    4    0    0 +5.7946928378e+01 -6.1357581308e+01 -6.7477748884e+01 1.6522967617e+02 1.2500000000e+02 0.0000e+00 0.0000e+00
<mgrwt>
<rscale>  0 0.41735129E+03</rscale>
<asrwt>0</asrwt>
<pdfrwt beam="1">  1        3 0.48611230E-01 0.41735129E+03</pdfrwt>
<pdfrwt beam="2">  1       -3 0.21202165E-01 0.41735129E+03</pdfrwt>
<totfact> 0.22314401E+02</totfact>
</mgrwt>
</event>
<event>
 8      1 +1.6198320e-01 3.24154200e+02 7.81860800e-03 1.07375300e-01
        2 -1    0    0  501    0 +0.0000000000e+00 +0.0000000000e+00 +1.9574278294e+03 1.9574278294e+03 2.5500000000e-03 0.0000e+00 1.0000e+00
       -2 -1    0    0    0  501 -0.0000000000e+00 -0.0000000000e+00 -1.3420153044e+01 1.3420153286e+01 2.5500000000e-03 0.0000e+00 -1.0000e+00
  1000101  2    1    2    0    0 -1.6851407687e+01 +4.7741697409e+01 +4.2630626951e+02 4.4715811773e+02 1.2510038856e+02 1.9919e+02 0.0000e+00
 -1000101  2    1    2    0    0 +1.6851407687e+01 -4.7741697409e+01 +1.5177014068e+03 1.5236898649e+03 1.2509997848e+02 7.9646e+00 0.0000e+00
       11  1    3    3    0    0 +1.0920752541e-02 -6.7017609110e-02 +2.2278211842e-01 2.3290074319e-01 5.1100000000e-04 0.0000e+00 1.0000e+00
      255  1    3    3    0    0 -1.6862328440e+01 +4.7808715019e+01 +4.2608348739e+02 4.4692521699e+02 1.2500000000e+02 0.0000e+00 0.0000e+00
      -11  1    4    4    0    0 +1.0980762000e-01 -1.2045821712e-02 +1.1801122070e+00 1.1852712337e+00 5.1100000000e-04 0.0000e+00 -1.0000e+00
      255  1    4    4    0    0 +1.6741600067e+01 -4.7729651588e+01 +1.5165212946e+03 1.5225045937e+03 1.2500000000e+02 0.0000e+00 0.0000e+00
<mgrwt>
<rscale>  0 0.32415417E+03</rscale>
<asrwt>0</asrwt>
<pdfrwt beam="1">  1        2 0.30114277E+00 0.32415417E+03</pdfrwt>
<pdfrwt beam="2">  1       -2 0.20646388E-02 0.32415417E+03</pdfrwt>
<totfact> 0.57724784E+03</totfact>
</mgrwt>
</event>
<event>
 8      1 +1.6198320e-01 3.01807300e+02 7.81860800e-03 1.08434100e-01
       -4 -1    0    0    0  501 -0.0000000000e+00 +0.0000000000e+00 +4.9799623478e+01 4.9815814743e+01 1.2700000000e+00 0.0000e+00 -1.0000e+00
        4 -1    0    0  501    0 +0.0000000000e+00 -0.0000000000e+00 -4.5717949641e+02 4.5718126037e+02 1.2700000000e+00 0.0000e+00 1.0000e+00
  1000101  2    1    2    0    0 +2.7315323458e+01 +2.8765958661e+01 -3.2881797924e+02 3.5404090118e+02 1.2510031560e+02 1.0856e+02 0.0000e+00
 -1000101  2    1    2    0    0 -2.7315323458e+01 -2.8765958661e+01 -7.8561893691e+01 1.5295617394e+02 1.2510001092e+02 1.4615e+02 0.0000e+00
       11  1    3    3    0    0 +6.0057828066e-02 +1.0659423946e-01 -1.9970563475e-01 2.3420477423e-01 5.1100000000e-04 0.0000e+00 1.0000e+00
      255  1    3    3    0    0 +2.7255265630e+01 +2.8659364422e+01 -3.2861827360e+02 3.5380669640e+02 1.2500000000e+02 0.0000e+00 0.0000e+00
      -11  1    4    4    0    0 -3.4063928004e-03 +5.7843563507e-02 +1.9906283395e-02 6.1269915876e-02 5.1100000000e-04 0.0000e+00 -1.0000e+00
      255  1    4    4    0    0 -2.7311917065e+01 -2.8823802225e+01 -7.8581799974e+01 1.5289490402e+02 1.2500000000e+02 0.0000e+00 0.0000e+00
<mgrwt>
<rscale>  0 0.30180734E+03</rscale>
<asrwt>0</asrwt>
<pdfrwt beam="1">  1        4 0.70336686E-01 0.30180734E+03</pdfrwt>
<pdfrwt beam="2">  1       -4 0.76628620E-02 0.30180734E+03</pdfrwt>
<totfact> 0.42369125E+02</totfact>
</mgrwt>
</event>
<event>
 8      1 +1.6198320e-01 3.64825100e+02 7.81860800e-03 1.05668900e-01
       -2 -1    0    0    0  501 -0.0000000000e+00 +0.0000000000e+00 +3.2911764480e+01 3.2911764579e+01 2.5500000000e-03 0.0000e+00 -1.0000e+00
        2 -1    0    0  501    0 +0.0000000000e+00 -0.0000000000e+00 -1.0110167133e+03 1.0110167133e+03 2.5500000000e-03 0.0000e+00 1.0000e+00
  1000101  2    1    2    0    0 +4.5123674417e+01 -3.5123100772e+01 -8.3188394169e+02 8.4317897138e+02 1.2510038823e+02 1.8448e+02 0.0000e+00
 -1000101  2    1    2    0    0 -4.5123674417e+01 +3.5123100772e+01 -1.4622100715e+02 2.0074950652e+02 1.2509997297e+02 1.5312e+02 0.0000e+00
       11  1    3    3    0    0 -4.3433529817e-02 +4.6759879116e-02 -4.7155750085e-01 4.7585680150e-01 5.1100000000e-04 0.0000e+00 1.0000e+00
      255  1    3    3    0    0 +4.5167107947e+01 -3.5169860651e+01 -8.3141238418e+02 8.4270311457e+02 1.2500000000e+02 0.0000e+00 0.0000e+00
      -11  1    4    4    0    0 +4.7736877249e-02 -3.7104170809e-02 -1.0761253060e-01 1.2343519273e-01 5.1100000000e-04 0.0000e+00 -1.0000e+00
      255  1    4    4    0    0 -4.5171411294e+01 +3.5160204943e+01 -1.4611339462e+02 2.0062607133e+02 1.2500000000e+02 0.0000e+00 0.0000e+00
<mgrwt>
<rscale>  0 0.36482513E+03</rscale>
<asrwt>0</asrwt>
<pdfrwt beam="1">  1        2 0.15554101E+00 0.36482513E+03</pdfrwt>
<pdfrwt beam="2">  1       -2 0.50633492E-02 0.36482513E+03</pdfrwt>
<totfact> 0.49863845E+03</totfact>
</mgrwt>
</event>
<event>
 8      1 +1.6198320e-01 3.56314500e+02 7.81860800e-03 1.06005300e-01
        2 -1    0    0  501    0 +0.0000000000e+00 +0.0000000000e+00 +1.3378652415e+03 1.3378652415e+03 2.5500000000e-03 0.0000e+00 1.0000e+00
       -2 -1    0    0    0  501 -0.0000000000e+00 -0.0000000000e+00 -2.3724370513e+01 2.3724370650e+01 2.5500000000e-03 0.0000e+00 -1.0000e+00
  1000101  2    1    2    0    0 +4.7882341033e+00 -2.9765197823e+01 +1.8623983582e+02 2.2637174114e+02 1.2509993826e+02 1.5230e+02 0.0000e+00
 -1000101  2    1    2    0    0 -4.7882341033e+00 +2.9765197823e+01 +1.1279010352e+03 1.1352178710e+03 1.2509986154e+02 9.9440e+01 0.0000e+00
       11  1    3    3    0    0 -3.1153803948e-03 +2.8262527883e-02 +2.8200362665e-01 2.8343391230e-01 5.1100000000e-04 0.0000e+00 1.0000e+00
      255  1    3    3    0    0 +4.7913494837e+00 -2.9793460351e+01 +1.8595783220e+02 2.2608830723e+02 1.2500000000e+02 0.0000e+00 0.0000e+00
      -11  1    4    4    0    0 +5.7540170657e-02 +1.0415599479e-01 +1.0398098364e+00 1.0465964358e+00 5.1100000000e-04 0.0000e+00 -1.0000e+00
      255  1    4    4    0    0 -4.8457742740e+00 +2.9661041828e+01 +1.1268612253e+03 1.1341712746e+03 1.2500000000e+02 0.0000e+00 0.0000e+00
<mgrwt>
<rscale>  0 0.35631453E+03</rscale>
<asrwt>0</asrwt>
<pdfrwt beam="1">  1        2 0.20582545E+00 0.35631453E+03</pdfrwt>
<pdfrwt beam="2">  1       -2 0.36499027E-02 0.35631453E+03</pdfrwt>
<totfact> 0.52939731E+03</totfact>
</mgrwt>
</event>
<event>
 8      1 +1.6198320e-01 2.79227900e+02 7.81860800e-03 1.09611100e-01
        2 -1    0    0  501    0 +0.0000000000e+00 +0.0000000000e+00 +3.7806692554e+02 3.7806692555e+02 2.5500000000e-03 0.0000e+00 1.0000e+00
       -2 -1    0    0    0  501 -0.0000000000e+00 -0.0000000000e+00 -5.1557169445e+01 5.1557169509e+01 2.5500000000e-03 0.0000e+00 -1.0000e+00
  1000101  2    1    2    0    0 +4.2877486587e+01 +1.3603338509e+01 +2.2886740268e+02 2.6467681957e+02 1.2509996455e+02 5.9350e+01 0.0000e+00
 -1000101  2    1    2    0    0 -4.2877486587e+01 -1.3603338509e+01 +9.7642353409e+01 1.6494727549e+02 1.2510013924e+02 2.1991e+02 0.0000e+00
       11  1    3    3    0    0 +7.4900103079e-02 -7.0882881316e-02 +2.7238517883e-01 2.9125307736e-01 5.1100000000e-04 0.0000e+00 1.0000e+00
      255  1    3    3    0    0 +4.2802586484e+01 +1.3674221391e+01 +2.2859501750e+02 2.6438556649e+02 1.2500000000e+02 0.0000e+00 0.0000e+00
      -11  1    4    4    0    0 -1.3854229638e-01 -2.6373098297e-02 +1.1939534165e-01 1.8478370309e-01 5.1100000000e-04 0.0000e+00 -1.0000e+00
      255  1    4    4    0    0 -4.2738944290e+01 -1.3576965411e+01 +9.7522958067e+01 1.6476249178e+02 1.2500000000e+02 0.0000e+00 0.0000e+00
<mgrwt>
<rscale>  0 0.27922794E+03</rscale>
<asrwt>0</asrwt>
<pdfrwt beam="1">  1        2 0.58164144E-01 0.27922794E+03</pdfrwt>
<pdfrwt beam="2">  1       -2 0.79318719E-02 0.27922794E+03</pdfrwt>
<totfact> 0.80905165E+03</totfact>
</mgrwt>
</event>
<event>
 8      1 +1.6198320e-01 3.67828600e+02 7.81860800e-03 1.05552600e-01
       -2 -1    0    0    0  501 -0.0000000000e+00 +0.0000000000e+00 +3.1136674983e+02 3.1136674984e+02 2.5500000000e-03 0.0000e+00 -1.0000e+00
        2 -1    0    0  501    0 +0.0000000000e+00 -0.0000000000e+00 -1.0863224091e+02 1.0863224094e+02 2.5500000000e-03 0.0000e+00 1.0000e+00
  1000101  2    1    2    0    0 -1.2533810354e+02 -4.0717135816e+01 +6.8931422111e+01 1.9434264066e+02 1.2509994275e+02 5.8509e+00 0.0000e+00
 -1000101  2    1    2    0    0 +1.2533810354e+02 +4.0717135816e+01 +1.3380308681e+02 2.2565635012e+02 1.2509994790e+02 6.4745e+01 0.0000e+00
       11  1    3    3    0    0 +2.1515504128e-02 -2.3859636774e-02 -3.0797199059e-02 4.4507614807e-02 5.1100000000e-04 0.0000e+00 1.0000e+00
      255  1    3    3    0    0 -1.2535961904e+02 -4.0693276180e+01 +6.8962219310e+01 1.9429813304e+02 1.2500000000e+02 0.0000e+00 0.0000e+00
      -11  1    4    4    0    0 -1.7736617533e-02 +8.6510878898e-03 +1.1144035389e-01 1.1317527345e-01 5.1100000000e-04 0.0000e+00 -1.0000e+00
      255  1    4    4    0    0 +1.2535584015e+02 +4.0708484729e+01 +1.3369164645e+02 2.2554317485e+02 1.2500000000e+02 0.0000e+00 0.0000e+00
<mgrwt>
<rscale>  0 0.36782859E+03</rscale>
<asrwt>0</asrwt>
<pdfrwt beam="1">  1        2 0.16712652E-01 0.36782859E+03</pdfrwt>
<pdfrwt beam="2">  1       -2 0.47902577E-01 0.36782859E+03</pdfrwt>
<totfact> 0.14427317E+03</totfact>
</mgrwt>
</event>
<event>
 8      1 +1.6198320e-01 4.95632500e+02 7.81860800e-03 1.01492500e-01
       -2 -1    0    0    0  501 -0.0000000000e+00 +0.0000000000e+00 +3.6059812761e+01 3.6059812852e+01 2.5500000000e-03 0.0000e+00 -1.0000e+00
        2 -1    0    0  501    0 +0.0000000000e+00 -0.0000000000e+00 -1.7030841803e+03 1.7030841803e+03 2.5500000000e-03 0.0000e+00 1.0000e+00
  1000101  2    1    2    0    0 -1.7613092926e+02 -7.2119957783e+01 -1.1762308933e+03 1.1980786697e+03 1.2509992768e+02 2.4709e+02 0.0000e+00
 -1000101  2    1    2    0    0 +1.7613092926e+02 +7.2119957783e+01 -4.9079347424e+02 5.4106532345e+02 1.2510018914e+02 6.8388e+00 0.0000e+00
       11  1    3    3    0    0 -1.2072259494e-02 -3.7811197738e-05 -6.6336935261e-01 6.6347938926e-01 5.1100000000e-04 0.0000e+00 1.0000e+00
      255  1    3    3    0    0 -1.7611885701e+02 -7.2119919972e+01 -1.1755675239e+03 1.1974151903e+03 1.2500000000e+02 0.0000e+00 0.0000e+00
      -11  1    4    4    0    0 +2.8802021708e-01 +7.6276160046e-02 -5.3497554035e-01 6.1235021674e-01 5.1100000000e-04 0.0000e+00 -1.0000e+00
      255  1    4    4    0    0 +1.7584290905e+02 +7.2043681623e+01 -4.9025849870e+02 5.4045297323e+02 1.2500000000e+02 0.0000e+00 0.0000e+00
<mgrwt>
<rscale>  0 0.49563251E+03</rscale>
<asrwt>0</asrwt>
<pdfrwt beam="1">  1        2 0.26201289E+00 0.49563251E+03</pdfrwt>
<pdfrwt beam="2">  1       -2 0.55476648E-02 0.49563251E+03</pdfrwt>
<totfact> 0.17595047E+03</totfact>
</mgrwt>
</event>
<event>
 8      1 +1.6198320e-01 3.18336100e+02 7.81860800e-03 1.07641800e-01
       -1 -1    0    0    0  501 -0.0000000000e+00 +0.0000000000e+00 +4.3138748003e+01 4.3138748297e+01 5.0400000000e-03 0.0000e+00 1.0000e+00
        1 -1    0    0  501    0 +0.0000000000e+00 -0.0000000000e+00 -5.8727871820e+02 5.8727871822e+02 5.0400000000e-03 0.0000e+00 -1.0000e+00
  1000101  2    1    2    0    0 +4.7501589803e+01 -6.8835971464e+01 -3.7477500991e+02 4.0385779592e+02 1.2510003705e+02 8.0418e+01 0.0000e+00
 -1000101  2    1    2    0    0 -4.7501589803e+01 +6.8835971464e+01 -1.6936496029e+02 2.2655967060e+02 1.2509997030e+02 1.3130e+02 0.0000e+00
       11  1    3    3    0    0 +9.6268070786e-02 -1.5258279910e-01 -3.6936249466e-01 4.1106929540e-01 5.1100000000e-04 0.0000e+00 1.0000e+00
      255  1    3    3    0    0 +4.7405321733e+01 -6.8683388665e+01 -3.7440564741e+02 4.0344672662e+02 1.2500000000e+02 0.0000e+00 0.0000e+00
      -11  1    4    4    0    0 -8.7712962330e-03 +1.4885065328e-01 -2.3081334574e-01 2.7478812623e-01 5.1100000000e-04 0.0000e+00 -1.0000e+00
      255  1    4    4    0    0 -4.7492818507e+01 +6.8687120810e+01 -1.6913414695e+02 2.2628488248e+02 1.2500000000e+02 0.0000e+00 0.0000e+00
<mgrwt>
<rscale>  0 0.31833610E+03</rscale>
<asrwt>0</asrwt>
<pdfrwt beam="1">  1        1 0.90350566E-01 0.31833610E+03</pdfrwt>
<pdfrwt beam="2">  1       -1 0.66367309E-02 0.31833610E+03</pdfrwt>
<totfact> 0.41584020E+03</totfact>
</mgrwt>
</event>
<event>
 8      1 +1.6198320e-01 3.53220200e+02 7.81860800e-03 1.06130100e-01
       -2 -1    0    0    0  501 -0.0000000000e+00 +0.0000000000e+00 +5.0550281869e+01 5.0550281933e+01 2.5500000000e-03 0.0000e+00 -1.0000e+00
        2 -1    0    0  501    0 +0.0000000000e+00 -0.0000000000e+00 -6.1703169092e+02 6.1703169092e+02 2.5500000000e-03 0.0000e+00 1.0000e+00
  1000101  2    1    2    0    0 +5.4573603743e+01 +1.0905481639e+02 -2.3432455362e+02 2.9228281447e+02 1.2510002401e+02 1.8575e+01 0.0000e+00
 -1000101  2    1    2    0    0 -5.4573603743e+01 -1.0905481639e+02 -3.3215685543e+02 3.7529915838e+02 1.2510016175e+02 6.2557e+01 0.0000e+00
       11  1    3    3    0    0 +6.7819801628e-02 +2.6041935339e-02 -2.8228052043e-01 2.9147943533e-01 5.1100000000e-04 0.0000e+00 1.0000e+00
      255  1    3    3    0    0 +5.4505783941e+01 +1.0902877445e+02 -2.3404227310e+02 2.9199133504e+02 1.2500000000e+02 0.0000e+00 0.0000e+00
      -11  1    4    4    0    0 -1.6190180368e-02 -1.4974381327e-01 -1.5325304735e-01 2.1487691639e-01 5.1100000000e-04 0.0000e+00 -1.0000e+00
      255  1    4    4    0    0 -5.4557413562e+01 -1.0890507257e+02 -3.3200360239e+02 3.7508428147e+02 1.2500000000e+02 0.0000e+00 0.0000e+00
<mgrwt>
<rscale>  0 0.35322019E+03</rscale>
<asrwt>0</asrwt>
<pdfrwt beam="1">  1        2 0.94927947E-01 0.35322019E+03</pdfrwt>
<pdfrwt beam="2">  1       -2 0.77769669E-02 0.35322019E+03</pdfrwt>
<totfact> 0.48459450E+03</totfact>
</mgrwt>
</event>
<event>
 8      1 +1.6198320e-01 6.96448600e+02 7.81860800e-03 9.72332500e-02
       -1 -1    0    0    0  501 -0.0000000000e+00 +0.0000000000e+00 +6.7137740660e+01 6.7137740849e+01 5.0400000000e-03 0.0000e+00 -1.0000e+00
        1 -1    0    0  501    0 +0.0000000000e+00 -0.0000000000e+00 -1.8061400242e+03 1.8061400242e+03 5.0400000000e-03 0.0000e+00 1.0000e+00
  1000101  2    1    2    0    0 +1.7502828358e+02 -1.5508810629e+02 -1.4764745004e+03 1.5001046554e+03 1.2509918500e+02 4.4549e+01 0.0000e+00
 -1000101  2    1    2    0    0 -1.7502828358e+02 +1.5508810629e+02 -2.6252778312e+02 3.7317310963e+02 1.2510040797e+02 2.2856e+02 0.0000e+00
       11  1    3    3    0    0 +2.4855257848e-01 -2.0671198627e-01 -2.2661233537e+00 2.2890660858e+00 5.1100000000e-04 0.0000e+00 1.0000e+00
      255  1    3    3    0    0 +1.7477973100e+02 -1.5488139430e+02 -1.4742083771e+03 1.4978155894e+03 1.2500000000e+02 0.0000e+00 0.0000e+00
      -11  1    4    4    0    0 -7.0681791225e-02 +1.3288652755e-01 -2.8620732847e-01 3.2337229443e-01 5.1100000000e-04 0.0000e+00 -1.0000e+00
      255  1    4    4    0    0 -1.7495760179e+02 +1.5495521976e+02 -2.6224157579e+02 3.7284973733e+02 1.2500000000e+02 0.0000e+00 0.0000e+00
<mgrwt>
<rscale>  0 0.69644859E+03</rscale>
<asrwt>0</asrwt>
<pdfrwt beam="1">  1        1 0.27786766E+00 0.69644859E+03</pdfrwt>
<pdfrwt beam="2">  1       -1 0.10328885E-01 0.69644859E+03</pdfrwt>
<totfact> 0.24884983E+02</totfact>
</mgrwt>
</event>
<event>
 8      1 +1.6198320e-01 4.80065400e+02 7.81860800e-03 1.01911700e-01
       -2 -1    0    0    0  501 -0.0000000000e+00 +0.0000000000e+00 +2.1634955347e+02 2.1634955349e+02 2.5500000000e-03 0.0000e+00 -1.0000e+00
        2 -1    0    0  501    0 +0.0000000000e+00 -0.0000000000e+00 -2.6630838170e+02 2.6630838171e+02 2.5500000000e-03 0.0000e+00 1.0000e+00
  1000101  2    1    2    0    0 +3.6208358981e+01 -9.9145782956e+01 -2.0149738805e+02 2.5959989960e+02 1.2509987587e+02 7.6541e+00 0.0000e+00
 -1000101  2    1    2    0    0 -3.6208358981e+01 +9.9145782956e+01 +1.5153855982e+02 2.2305803560e+02 1.2510004234e+02 1.0239e+02 0.0000e+00
       11  1    3    3    0    0 +3.4790410971e-02 -1.7910328185e-01 -3.3426266384e-01 3.8081510976e-01 5.1100000000e-04 0.0000e+00 1.0000e+00
      255  1    3    3    0    0 +3.6173568571e+01 -9.8966679674e+01 -2.0116312539e+02 2.5921908449e+02 1.2500000000e+02 0.0000e+00 0.0000e+00
      -11  1    4    4    0    0 +7.2304849453e-02 +8.6067238272e-02 +9.6012490423e-02 1.4783172933e-01 5.1100000000e-04 0.0000e+00 -1.0000e+00
      255  1    4    4    0    0 -3.6280663831e+01 +9.9059715718e+01 +1.5144254733e+02 2.2291020387e+02 1.2500000000e+02 0.0000e+00 0.0000e+00
<mgrwt>
<rscale>  0 0.48006541E+03</rscale>
<asrwt>0</asrwt>
<pdfrwt beam="1">  1        2 0.40970520E-01 0.48006541E+03</pdfrwt>
<pdfrwt beam="2">  1       -2 0.33284547E-01 0.48006541E+03</pdfrwt>
<totfact> 0.10576011E+03</totfact>
</mgrwt>
</event>
<event>
 8      1 +1.6198320e-01 4.08555000e+02 7.81860800e-03 1.04085700e-01
        1 -1    0    0  501    0 +0.0000000000e+00 +0.0000000000e+00 +2.5032524963e+03 2.5032524963e+03 5.0400000000e-03 0.0000e+00 1.0000e+00
       -1 -1    0    0    0  501 -0.0000000000e+00 -0.0000000000e+00 -1.6670030014e+01 1.6670030776e+01 5.0400000000e-03 0.0000e+00 -1.0000e+00
  1000101  2    1    2    0    0 +5.2532222483e+01 +6.2127920374e+00 +2.1843960169e+03 2.1886146779e+03 1.2510002740e+02 2.0950e+02 0.0000e+00
 -1000101  2    1    2    0    0 -5.2532222483e+01 -6.2127920374e+00 +3.0218644941e+02 3.3130784912e+02 1.2509999000e+02 1.5464e+01 0.0000e+00
       11  1    3    3    0    0 +1.3095896515e-01 +5.6073954393e-02 +2.7982362421e+00 2.8018602510e+00 5.1100000000e-04 0.0000e+00 1.0000e+00
      255  1    3    3    0    0 +5.2401263518e+01 +6.1567180830e+00 +2.1815977806e+03 2.1858128177e+03 1.2500000000e+02 0.0000e+00 0.0000e+00
      -11  1    4    4    0    0 -1.1441045907e-01 +2.1258699135e-02 +1.3256516018e-01 1.7639577163e-01 5.1100000000e-04 0.0000e+00 -1.0000e+00
      255  1    4    4    0    0 -5.2417812024e+01 -6.2340507365e+00 +3.0205388425e+02 3.3113145335e+02 1.2500000000e+02 0.0000e+00 0.0000e+00
<mgrwt>
<rscale>  0 0.40855499E+03</rscale>
<asrwt>0</asrwt>
<pdfrwt beam="1">  1        1 0.38511542E+00 0.40855499E+03</pdfrwt>
<pdfrwt beam="2">  1       -1 0.25646224E-02 0.40855499E+03</pdfrwt>
<totfact> 0.73839456E+02</totfact>
</mgrwt>
</event>
<event>
 8      1 +1.6198320e-01 3.16249700e+02 7.81860800e-03 1.07738800e-01
       -2 -1    0    0    0  501 -0.0000000000e+00 +0.0000000000e+00 +9.3406740387e+00 9.3406743867e+00 2.5500000000e-03 0.0000e+00 -1.0000e+00
        2 -1    0    0  501    0 +0.0000000000e+00 -0.0000000000e+00 -2.6768370591e+03 2.6768370591e+03 2.5500000000e-03 0.0000e+00 1.0000e+00
  1000101  2    1    2    0    0 -6.7315400950e+00 +2.6373573307e+00 -2.1529176818e+03 2.1565613795e+03 1.2510063830e+02 5.5844e+01 0.0000e+00
 -1000101  2    1    2    0    0 +6.7315400950e+00 -2.6373573307e+00 -5.1457870321e+02 5.2961635393e+02 1.2509984518e+02 1.0266e+01 0.0000e+00
       11  1    3    3    0    0 -1.1483411237e-02 +6.6786429763e-02 -3.0825892151e+00 3.0833340439e+00 5.1100000000e-04 0.0000e+00 1.0000e+00
      255  1    3    3    0    0 -6.7200566837e+00 +2.5705709010e+00 -2.1498350926e+03 2.1534780455e+03 1.2500000000e+02 0.0000e+00 0.0000e+00
      -11  1    4    4    0    0 +6.0317066806e-02 +8.0329309841e-02 -4.6693518998e-01 4.7761875940e-01 5.1100000000e-04 0.0000e+00 -1.0000e+00
      255  1    4    4    0    0 +6.6712230282e+00 -2.7176866406e+00 -5.1411176802e+02 5.2913873517e+02 1.2500000000e+02 0.0000e+00 0.0000e+00
<mgrwt>
<rscale>  0 0.31624967E+03</rscale>
<asrwt>0</asrwt>
<pdfrwt beam="1">  1        2 0.41182048E+00 0.31624967E+03</pdfrwt>
<pdfrwt beam="2">  1       -2 0.14370289E-02 0.31624967E+03</pdfrwt>
<totfact> 0.40107903E+03</totfact>
</mgrwt>
</event>
<event>
 8      1 +1.6198320e-01 3.27824100e+02 7.81860800e-03 1.07210400e-01
        3 -1    0    0  501    0 +0.0000000000e+00 +0.0000000000e+00 +2.1250003639e+01 2.1250243661e+01 1.0100000000e-01 0.0000e+00 1.0000e+00
       -3 -1    0    0    0  501 -0.0000000000e+00 -0.0000000000e+00 -1.2643296583e+03 1.2643296624e+03 1.0100000000e-01 0.0000e+00 -1.0000e+00
  1000101  2    1    2    0    0 -1.9129161326e+01 +1.3986567891e+01 -2.1673237014e+02 2.5136508682e+02 1.2509971108e+02 5.1073e+01 0.0000e+00
 -1000101  2    1    2    0    0 +1.9129161326e+01 -1.3986567891e+01 -1.0263472846e+03 1.0342148192e+03 1.2509993949e+02 1.9111e+02 0.0000e+00
       11  1    3    3    0    0 -5.5613113710e-02 -2.8977665960e-02 -1.3938153625e-02 6.4242172975e-02 5.1100000000e-04 0.0000e+00 1.0000e+00
      255  1    3    3    0    0 -1.9073548213e+01 +1.4015545557e+01 -2.1671843199e+02 2.5130084465e+02 1.2500000000e+02 0.0000e+00 0.0000e+00
      -11  1    4    4    0    0 +1.0196657398e-01 -2.7413751376e-02 -5.3940634017e-01 5.4964366358e-01 5.1100000000e-04 0.0000e+00 -1.0000e+00
      255  1    4    4    0    0 +1.9027194752e+01 -1.3959154140e+01 -1.0258078782e+03 1.0336651756e+03 1.2500000000e+02 0.0000e+00 0.0000e+00
<mgrwt>
<rscale>  0 0.32782414E+03</rscale>
<asrwt>0</asrwt>
<pdfrwt beam="1">  1        3 0.32692511E-02 0.32782414E+03</pdfrwt>
<pdfrwt beam="2">  1       -3 0.19451221E+00 0.32782414E+03</pdfrwt>
<totfact> 0.19626233E+02</totfact>
</mgrwt>
</event>
<event>
 8      1 +1.6198320e-01 2.80695500e+02 7.81860800e-03 1.09531000e-01
       -3 -1    0    0    0  501 -0.0000000000e+00 +0.0000000000e+00 +3.8278004041e+01 3.8278137290e+01 1.0100000000e-01 0.0000e+00 -1.0000e+00
        3 -1    0    0  501    0 +0.0000000000e+00 -0.0000000000e+00 -5.1458923246e+02 5.1458924237e+02 1.0100000000e-01 0.0000e+00 1.0000e+00
  1000101  2    1    2    0    0 +5.8629650029e+01 -2.4509397793e+01 -2.3214011151e+02 2.7125112468e+02 1.2509993937e+02 1.5640e+01 0.0000e+00
 -1000101  2    1    2    0    0 -5.8629650029e+01 +2.4509397793e+01 -2.4417111691e+02 2.8161625498e+02 1.2510009708e+02 3.1578e+02 0.0000e+00
       11  1    3    3    0    0 +1.3741200801e-01 -2.6278331055e-02 -3.6015835027e-01 3.8637664140e-01 5.1100000000e-04 0.0000e+00 1.0000e+00
      255  1    3    3    0    0 +5.8492238021e+01 -2.4483119462e+01 -2.3177995316e+02 2.7086474804e+02 1.2500000000e+02 0.0000e+00 0.0000e+00
      -11  1    4    4    0    0 -7.0339014028e-02 -2.3366525265e-02 -2.4076117162e-02 7.7932611511e-02 5.1100000000e-04 0.0000e+00 -1.0000e+00
      255  1    4    4    0    0 -5.8559311015e+01 +2.4532764318e+01 -2.4414704079e+02 2.8153832236e+02 1.2500000000e+02 0.0000e+00 0.0000e+00
<mgrwt>
<rscale>  0 0.28069548E+03</rscale>
<asrwt>0</asrwt>
<pdfrwt beam="1">  1        3 0.79167580E-01 0.28069548E+03</pdfrwt>
<pdfrwt beam="2">  1       -3 0.58889351E-02 0.28069548E+03</pdfrwt>
<totfact> 0.68185391E+02</totfact>
</mgrwt>
</event>
<event>
 8      1 +1.6198320e-01 2.98454400e+02 7.81860800e-03 1.08601600e-01
       -2 -1    0    0    0  501 -0.0000000000e+00 +0.0000000000e+00 +5.6508413446e+01 5.6508413503e+01 2.5500000000e-03 0.0000e+00 -1.0000e+00
        2 -1    0    0  501    0 +0.0000000000e+00 -0.0000000000e+00 -3.9407866450e+02 3.9407866450e+02 2.5500000000e-03 0.0000e+00 1.0000e+00
  1000101  2    1    2    0    0 -4.7557493582e+01 -6.5895997963e+01 -1.6298910379e+02 2.2095132246e+02 1.2510012469e+02 4.6793e+01 0.0000e+00
 -1000101  2    1    2    0    0 +4.7557493582e+01 +6.5895997963e+01 -1.7458114726e+02 2.2963575555e+02 1.2509998204e+02 8.8536e+01 0.0000e+00
       11  1    3    3    0    0 -8.7510806242e-02 +3.4620312224e-02 -1.3731799179e-01 1.6647281825e-01 5.1100000000e-04 0.0000e+00 1.0000e+00
      255  1    3    3    0    0 -4.7469982775e+01 -6.5930618276e+01 -1.6285178580e+02 2.2078484964e+02 1.2500000000e+02 0.0000e+00 0.0000e+00
      -11  1    4    4    0    0 +1.9133045526e-02 -2.2795421660e-02 +2.0605641855e-02 3.6201633624e-02 5.1100000000e-04 0.0000e+00 -1.0000e+00
      255  1    4    4    0    0 +4.7538360536e+01 +6.5918793385e+01 -1.7460175290e+02 2.2959955392e+02 1.2500000000e+02 0.0000e+00 0.0000e+00
<mgrwt>
<rscale>  0 0.29845442E+03</rscale>
<asrwt>0</asrwt>
<pdfrwt beam="1">  1        2 0.60627485E-01 0.29845442E+03</pdfrwt>
<pdfrwt beam="2">  1       -2 0.86936023E-02 0.29845442E+03</pdfrwt>
<totfact> 0.67130825E+03</totfact>
</mgrwt>
</event>
<event>
 8      1 +1.6198320e-01 2.87504700e+02 7.81860800e-03 1.09165900e-01
       -2 -1    0    0    0  501 -0.0000000000e+00 +0.0000000000e+00 +9.3577722500e+01 9.3577722535e+01 2.5500000000e-03 0.0000e+00 -1.0000e+00
        2 -1    0    0  501    0 +0.0000000000e+00 -0.0000000000e+00 -2.2082961228e+02 2.2082961229e+02 2.5500000000e-03 0.0000e+00 1.0000e+00
  1000101  2    1    2    0    0 -5.6845681448e+01 +3.8849966988e+01 -4.5525964395e+01 1.4987792534e+02 1.2510007049e+02 5.2202e+01 0.0000e+00
 -1000101  2    1    2    0    0 +5.6845681448e+01 -3.8849966988e+01 -8.1725925384e+01 1.6452940948e+02 1.2510015296e+02 1.1451e+01 0.0000e+00
       11  1    3    3    0    0 -1.2634703335e-01 +8.2965308651e-02 -1.0783273208e-01 1.8567437762e-01 5.1100000000e-04 0.0000e+00 1.0000e+00
      255  1    3    3    0    0 -5.6719334415e+01 +3.8767001679e+01 -4.5418131663e+01 1.4969225097e+02 1.2500000000e+02 0.0000e+00 0.0000e+00
      -11  1    4    4    0    0 +6.2370280955e-02 -1.1989487257e-01 -2.2055624309e-02 1.3693627752e-01 5.1100000000e-04 0.0000e+00 -1.0000e+00
      255  1    4    4    0    0 +5.6783311167e+01 -3.8730072115e+01 -8.1703869759e+01 1.6439247321e+02 1.2500000000e+02 0.0000e+00 0.0000e+00
<mgrwt>
<rscale>  0 0.28750466E+03</rscale>
<asrwt>0</asrwt>
<pdfrwt beam="1">  1        2 0.33973786E-01 0.28750466E+03</pdfrwt>
<pdfrwt beam="2">  1       -2 0.14396573E-01 0.28750466E+03</pdfrwt>
<totfact> 0.55740249E+03</totfact>
</mgrwt>
</event>
<event>
 8      1 +1.6198320e-01 3.16908000e+02 7.81860800e-03 1.07708100e-01
        2 -1    0    0  501    0 +0.0000000000e+00 +0.0000000000e+00 +9.3550702396e+02 9.3550702396e+02 2.5500000000e-03 0.0000e+00 1.0000e+00
       -2 -1    0    0    0  501 -0.0000000000e+00 -0.0000000000e+00 -2.6838571121e+01 2.6838571242e+01 2.5500000000e-03 0.0000e+00 -1.0000e+00
  1000101  2    1    2    0    0 -3.9068776333e+01 -6.0754191062e+01 +2.5659631696e+02 2.9446415830e+02 1.2510007845e+02 7.5193e+01 0.0000e+00
 -1000101  2    1    2    0    0 +3.9068776333e+01 +6.0754191062e+01 +6.5207213588e+02 6.6788143691e+02 1.2510036914e+02 4.8118e+01 0.0000e+00
       11  1    3    3    0    0 -1.8783444319e-02 +6.0335331643e-02 +1.5898261969e-01 1.7108157268e-01 5.1100000000e-04 0.0000e+00 1.0000e+00
      255  1    3    3    0    0 -3.9049992889e+01 -6.0814526393e+01 +2.5643733434e+02 2.9429307672e+02 1.2500000000e+02 0.0000e+00 0.0000e+00
      -11  1    4    4    0    0 +9.1781239826e-02 -2.7349346700e-02 +5.8863850736e-01 5.9637851757e-01 5.1100000000e-04 0.0000e+00 -1.0000e+00
      255  1    4    4    0    0 +3.8976995094e+01 +6.0781540408e+01 +6.5148349737e+02 6.6728505839e+02 1.2500000000e+02 0.0000e+00 0.0000e+00
<mgrwt>
<rscale>  0 0.31690801E+03</rscale>
<asrwt>0</asrwt>
<pdfrwt beam="1">  1        2 0.14392417E+00 0.31690801E+03</pdfrwt>
<pdfrwt beam="2">  1       -2 0.41290106E-02 0.31690801E+03</pdfrwt>
<totfact> 0.75671313E+03</totfact>
</mgrwt>
</event>
<event>
 8      1 +1.6198320e-01 4.37576300e+02 7.81860800e-03 1.03149300e-01
        2 -1    0    0  501    0 +0.0000000000e+00 +0.0000000000e+00 +8.6564472631e+02 8.6564472632e+02 2.5500000000e-03 0.0000e+00 1.0000e+00
       -2 -1    0    0    0  501 -0.0000000000e+00 -0.0000000000e+00 -5.5297794387e+01 5.5297794445e+01 2.5500000000e-03 0.0000e+00 -1.0000e+00
  1000101  2    1    2    0    0 -5.1673543481e+01 +2.4943096171e+01 +7.6312306664e+02 7.7543483018e+02 1.2510015140e+02 1.7034e+01 0.0000e+00
 -1000101  2    1    2    0    0 +5.1673543481e+01 -2.4943096171e+01 +4.7223865285e+01 1.4550769058e+02 1.2510028546e+02 5.7583e+01 0.0000e+00
       11  1    3    3    0    0 -1.1090488854e-01 +9.8977055736e-02 +9.7006538495e-01 9.8138853879e-01 5.1100000000e-04 0.0000e+00 1.0000e+00
      255  1    3    3    0    0 -5.1562638593e+01 +2.4844119115e+01 +7.6215300126e+02 7.7445344165e+02 1.2500000000e+02 0.0000e+00 0.0000e+00
      -11  1    4    4    0    0 +1.3149206180e-01 +1.7926122459e-02 +1.0124133307e-02 1.3309495625e-01 5.1100000000e-04 0.0000e+00 -1.0000e+00
      255  1    4    4    0    0 +5.1542051420e+01 -2.4961022294e+01 +4.7213741152e+01 1.4537459562e+02 1.2500000000e+02 0.0000e+00 0.0000e+00
<mgrwt>
<rscale>  0 0.43757625E+03</rscale>
<asrwt>0</asrwt>
<pdfrwt beam="1">  1        2 0.13317612E+00 0.43757625E+03</pdfrwt>
<pdfrwt beam="2">  1       -2 0.85073527E-02 0.43757625E+03</pdfrwt>
<totfact> 0.27576271E+03</totfact>
</mgrwt>
</event>
<event>
 8      1 +1.6198320e-01 3.80413500e+02 7.81860800e-03 1.05078100e-01
       -2 -1    0    0    0  501 -0.0000000000e+00 +0.0000000000e+00 +4.0319174240e+01 4.0319174321e+01 2.5500000000e-03 0.0000e+00 -1.0000e+00
        2 -1    0    0  501    0 +0.0000000000e+00 -0.0000000000e+00 -8.9730505128e+02 8.9730505128e+02 2.5500000000e-03 0.0000e+00 1.0000e+00
  1000101  2    1    2    0    0 +3.0324299836e+01 +8.7205215471e+01 -6.9854207007e+02 7.1563629696e+02 1.2509985255e+02 1.5415e+01 0.0000e+00
 -1000101  2    1    2    0    0 -3.0324299836e+01 -8.7205215471e+01 -1.5844380697e+02 2.2198792864e+02 1.2509951131e+02 4.5130e+01 0.0000e+00
       11  1    3    3    0    0 +4.5317229731e-02 +1.7752016501e-01 -1.0560346921e+00 1.0718099609e+00 5.1100000000e-04 0.0000e+00 1.0000e+00
      255  1    3    3    0    0 +3.0278982606e+01 +8.7027695306e+01 -6.9748603538e+02 7.1456448700e+02 1.2500000000e+02 0.0000e+00 0.0000e+00
      -11  1    4    4    0    0 +6.1777955095e-02 -1.0577786110e-01 -8.0216705078e-02 1.4642558700e-01 5.1100000000e-04 0.0000e+00 -1.0000e+00
      255  1    4    4    0    0 -3.0386077791e+01 -8.7099437610e+01 -1.5836359026e+02 2.2184150305e+02 1.2500000000e+02 0.0000e+00 0.0000e+00
<mgrwt>
<rscale>  0 0.38041345E+03</rscale>
<asrwt>0</asrwt>
<pdfrwt beam="1">  1        2 0.13804692E+00 0.38041345E+03</pdfrwt>
<pdfrwt beam="2">  1       -2 0.62029506E-02 0.38041345E+03</pdfrwt>
<totfact> 0.43088447E+03</totfact>
</mgrwt>
</event>
<event>
 8      1 +1.6198320e-01 2.66413600e+02 7.81860800e-03 1.10335000e-01
       -2 -1    0    0    0  501 -0.0000000000e+00 +0.0000000000e+00 +9.1912434980e+01 9.1912435016e+01 2.5500000000e-03 0.0000e+00 -1.0000e+00
        2 -1    0    0  501    0 +0.0000000000e+00 -0.0000000000e+00 -1.9305393881e+02 1.9305393883e+02 2.5500000000e-03 0.0000e+00 1.0000e+00
  1000101  2    1    2    0    0 -1.8759884625e+01 -3.9130276375e+01 -3.5036308176e+01 1.3696956256e+02 1.2509998552e+02 8.0756e+00 0.0000e+00
 -1000101  2    1    2    0    0 +1.8759884625e+01 +3.9130276375e+01 -6.6105195656e+01 1.4799681128e+02 1.2510014971e+02 1.6026e+01 0.0000e+00
       11  1    3    3    0    0 -9.2196750975e-02 +1.6691284342e-02 -7.0266854373e-02 1.1711759820e-01 5.1100000000e-04 0.0000e+00 1.0000e+00
      255  1    3    3    0    0 -1.8667687874e+01 -3.9146967659e+01 -3.4966041322e+01 1.3685244497e+02 1.2500000000e+02 0.0000e+00 0.0000e+00
      -11  1    4    4    0    0 -1.0610330365e-02 -6.9712134101e-02 -1.7472703436e-02 7.2649275553e-02 5.1100000000e-04 0.0000e+00 -1.0000e+00
      255  1    4    4    0    0 +1.8770494955e+01 +3.9199988509e+01 -6.6087722953e+01 1.4792416201e+02 1.2500000000e+02 0.0000e+00 0.0000e+00
<mgrwt>
<rscale>  0 0.26641365E+03</rscale>
<asrwt>0</asrwt>
<pdfrwt beam="1">  1        2 0.29700606E-01 0.26641365E+03</pdfrwt>
<pdfrwt beam="2">  1       -2 0.14140375E-01 0.26641365E+03</pdfrwt>
<totfact> 0.66317097E+03</totfact>
</mgrwt>
</event>
<event>
 8      1 +1.6198320e-01 3.60275300e+02 7.81860800e-03 1.05847500e-01
        2 -1    0    0  501    0 +0.0000000000e+00 +0.0000000000e+00 +2.3029472362e+03 2.3029472362e+03 2.5500000000e-03 0.0000e+00 -1.0000e+00
       -2 -1    0    0    0  501 -0.0000000000e+00 -0.0000000000e+00 -1.4090453813e+01 1.4090454044e+01 2.5500000000e-03 0.0000e+00 1.0000e+00
  1000101  2    1    2    0    0 -8.6857198864e+01 -4.9517754815e+01 +1.6748985589e+03 1.6825371890e+03 1.2510007572e+02 7.1962e+01 0.0000e+00
 -1000101  2    1    2    0    0 +8.6857198864e+01 +4.9517754815e+01 +6.1395822357e+02 6.3450050126e+02 1.2509997912e+02 4.4694e+02 0.0000e+00
       11  1    3    3    0    0 -5.7116966464e-02 +9.3261108145e-03 +2.0471554638e+00 2.0479734076e+00 5.1100000000e-04 0.0000e+00 1.0000e+00
      255  1    3    3    0    0 -8.6800081897e+01 -4.9527080926e+01 +1.6728514034e+03 1.6804892156e+03 1.2500000000e+02 0.0000e+00 0.0000e+00
      -11  1    4    4    0    0 -1.7898906845e-02 -2.8522407127e-02 +4.2282274991e-01 4.2416180584e-01 5.1100000000e-04 0.0000e+00 -1.0000e+00
      255  1    4    4    0    0 +8.6875097771e+01 +4.9546277222e+01 +6.1353540082e+02 6.3407633945e+02 1.2500000000e+02 0.0000e+00 0.0000e+00
<mgrwt>
<rscale>  0 0.36027529E+03</rscale>
<asrwt>0</asrwt>
<pdfrwt beam="1">  1        2 0.35430000E+00 0.36027529E+03</pdfrwt>
<pdfrwt beam="2">  1       -2 0.21677595E-02 0.36027529E+03</pdfrwt>
<totfact> 0.35067984E+03</totfact>
</mgrwt>
</event>
<event>
 8      1 +1.6198320e-01 2.89794700e+02 7.81860800e-03 1.09045600e-01
        2 -1    0    0  501    0 +0.0000000000e+00 +0.0000000000e+00 +1.8104498952e+02 1.8104498954e+02 2.5500000000e-03 0.0000e+00 1.0000e+00
       -2 -1    0    0    0  501 -0.0000000000e+00 -0.0000000000e+00 -1.1596696434e+02 1.1596696437e+02 2.5500000000e-03 0.0000e+00 -1.0000e+00
  1000101  2    1    2    0    0 +4.7456776051e+01 +1.9268269680e+01 +8.6009063313e+01 1.6022162727e+02 1.2509995629e+02 2.0921e+01 0.0000e+00
 -1000101  2    1    2    0    0 -4.7456776051e+01 -1.9268269680e+01 -2.0931038131e+01 1.3679032664e+02 1.2510025298e+02 9.4671e+00 0.0000e+00
       11  1    3    3    0    0 +7.9358562030e-02 -3.5770794888e-02 +1.6279822343e-01 1.8461000463e-01 5.1100000000e-04 0.0000e+00 1.0000e+00
      255  1    3    3    0    0 +4.7377417489e+01 +1.9304040475e+01 +8.5846265089e+01 1.6003701727e+02 1.2500000000e+02 0.0000e+00 0.0000e+00
      -11  1    4    4    0    0 -8.4387022038e-02 +6.7702965321e-02 -4.9448192900e-02 1.1895480614e-01 5.1100000000e-04 0.0000e+00 -1.0000e+00
      255  1    4    4    0    0 -4.7372389029e+01 -1.9335972645e+01 -2.0881589938e+01 1.3667137183e+02 1.2500000000e+02 0.0000e+00 0.0000e+00
<mgrwt>
<rscale>  0 0.28979467E+03</rscale>
<asrwt>0</asrwt>
<pdfrwt beam="1">  1        2 0.27853075E-01 0.28979467E+03</pdfrwt>
<pdfrwt beam="2">  1       -2 0.17841071E-01 0.28979467E+03</pdfrwt>
<totfact> 0.48494545E+03</totfact>
</mgrwt>
</event>
<event>
 8      1 +1.6198320e-01 2.92094500e+02 7.81860800e-03 1.08926100e-01
        2 -1    0    0  501    0 +0.0000000000e+00 +0.0000000000e+00 +5.3081798485e+02 5.3081798486e+02 2.5500000000e-03 0.0000e+00 1.0000e+00
       -2 -1    0    0    0  501 -0.0000000000e+00 -0.0000000000e+00 -4.0182874241e+01 4.0182874322e+01 2.5500000000e-03 0.0000e+00 -1.0000e+00
  1000101  2    1    2    0    0 +4.1266947909e+00 +7.3940794204e+01 +2.1798367662e+02 2.6201365811e+02 1.2509997245e+02 5.3664e+00 0.0000e+00
 -1000101  2    1    2    0    0 -4.1266947909e+00 -7.3940794204e+01 +2.7265143399e+02 3.0898720107e+02 1.2510002122e+02 5.7848e+01 0.0000e+00
       11  1    3    3    0    0 -5.1557476346e-02 +9.1402549623e-02 +3.3783579057e-01 3.5375963868e-01 5.1100000000e-04 0.0000e+00 1.0000e+00
      255  1    3    3    0    0 +4.1782522672e+00 +7.3849391655e+01 +2.1764584083e+02 2.6165989847e+02 1.2500000000e+02 0.0000e+00 0.0000e+00
      -11  1    4    4    0    0 -1.0038244576e-01 -4.0462080845e-02 +1.7046576077e-01 2.0192239133e-01 5.1100000000e-04 0.0000e+00 -1.0000e+00
      255  1    4    4    0    0 -4.0263123451e+00 -7.3900332123e+01 +2.7248096823e+02 3.0878527868e+02 1.2500000000e+02 0.0000e+00 0.0000e+00
<mgrwt>
<rscale>  0 0.29209445E+03</rscale>
<asrwt>0</asrwt>
<pdfrwt beam="1">  1        2 0.81664303E-01 0.29209445E+03</pdfrwt>
<pdfrwt beam="2">  1       -2 0.61819808E-02 0.29209445E+03</pdfrwt>
<totfact> 0.81987434E+03</totfact>
</mgrwt>
</event>
<event>
 8      1 +1.6198320e-01 2.94328300e+02 7.81860800e-03 1.08811100e-01
        2 -1    0    0  501    0 +0.0000000000e+00 +0.0000000000e+00 +1.7415306251e+02 1.7415306253e+02 2.5500000000e-03 0.0000e+00 1.0000e+00
       -2 -1    0    0    0  501 -0.0000000000e+00 -0.0000000000e+00 -1.2435775952e+02 1.2435775955e+02 2.5500000000e-03 0.0000e+00 -1.0000e+00
  1000101  2    1    2    0    0 +9.8046201385e-03 +5.7662203888e+01 -2.7630555812e+01 1.4049328432e+02 1.2509990196e+02 3.2800e+01 0.0000e+00
 -1000101  2    1    2    0    0 -9.8046201385e-03 -5.7662203888e+01 +7.7425858803e+01 1.5801753776e+02 1.2509935562e+02 9.2605e+01 0.0000e+00
       11  1    3    3    0    0 +2.1830712962e-02 -5.2563738786e-02 -5.2995738215e-02 7.7771048946e-02 5.1100000000e-04 0.0000e+00 1.0000e+00
      255  1    3    3    0    0 -1.2026092823e-02 +5.7714767627e+01 -2.7577560074e+01 1.4041551327e+02 1.2500000000e+02 0.0000e+00 0.0000e+00
      -11  1    4    4    0    0 +2.1269783064e-02 -1.0675525324e-02 -5.1894496584e-02 5.7093523357e-02 5.1100000000e-04 0.0000e+00 -1.0000e+00
      255  1    4    4    0    0 -3.1074403203e-02 -5.7651528363e+01 +7.7477753299e+01 1.5796044424e+02 1.2500000000e+02 0.0000e+00 0.0000e+00
<mgrwt>
<rscale>  0 0.29432828E+03</rscale>
<asrwt>0</asrwt>
<pdfrwt beam="1">  1        2 0.26792779E-01 0.29432828E+03</pdfrwt>
<pdfrwt beam="2">  1       -2 0.19131963E-01 0.29432828E+03</pdfrwt>
<totfact> 0.44994274E+03</totfact>
</mgrwt>
</event>
<event>
 8      1 +1.6198320e-01 3.62621600e+02 7.81860800e-03 1.05755100e-01
        4 -1    0    0  501    0 +0.0000000000e+00 +0.0000000000e+00 +6.8434383081e+02 6.8434500923e+02 1.2700000000e+00 0.0000e+00 1.0000e+00
       -4 -1    0    0    0  501 -0.0000000000e+00 -0.0000000000e+00 -4.8027054010e+01 4.8043842653e+01 1.2700000000e+00 0.0000e+00 -1.0000e+00
  1000101  2    1    2    0    0 +5.4089553423e+01 -1.4955215008e+01 +5.5776606916e+02 5.7437125590e+02 1.2510001380e+02 8.7917e+01 0.0000e+00
 -1000101  2    1    2    0    0 -5.4089553423e+01 +1.4955215008e+01 +7.8550707642e+01 1.5801759599e+02 1.2509999491e+02 1.2808e+02 0.0000e+00
       11  1    3    3    0    0 +9.2467789468e-02 +2.4230238417e-02 +1.7096703101e-01 1.9587593869e-01 5.1100000000e-04 0.0000e+00 1.0000e+00
      255  1    3    3    0    0 +5.3997085633e+01 -1.4979445247e+01 +5.5759510212e+02 5.7417537996e+02 1.2500000000e+02 0.0000e+00 0.0000e+00
      -11  1    4    4    0    0 +5.4548070763e-02 -3.5576010058e-02 +4.8519334223e-02 8.1212877247e-02 5.1100000000e-04 0.0000e+00 -1.0000e+00
      255  1    4    4    0    0 -5.4144101493e+01 +1.4990791018e+01 +7.8502188308e+01 1.5793638311e+02 1.2500000000e+02 0.0000e+00 0.0000e+00
<mgrwt>
<rscale>  0 0.36262155E+03</rscale>
<asrwt>0</asrwt>
<pdfrwt beam="1">  1        4 0.10528505E+00 0.36262155E+03</pdfrwt>
<pdfrwt beam="2">  1       -4 0.73901592E-02 0.36262155E+03</pdfrwt>
<totfact> 0.18309963E+02</totfact>
</mgrwt>
</event>
<event>
 8      1 +1.6198320e-01 3.26048700e+02 7.81860800e-03 1.07289900e-01
        2 -1    0    0  501    0 +0.0000000000e+00 +0.0000000000e+00 +2.9512808780e+02 2.9512808781e+02 2.5500000000e-03 0.0000e+00 1.0000e+00
       -2 -1    0    0    0  501 -0.0000000000e+00 -0.0000000000e+00 -9.0052210585e+01 9.0052210621e+01 2.5500000000e-03 0.0000e+00 -1.0000e+00
  1000101  2    1    2    0    0 -7.0832808332e+01 +2.5222921236e+01 +1.6749682813e+01 1.4691522552e+02 1.2510015637e+02 2.5078e+02 0.0000e+00
 -1000101  2    1    2    0    0 +7.0832808332e+01 -2.5222921236e+01 +1.8832619440e+02 2.3826507291e+02 1.2509998792e+02 2.3092e+02 0.0000e+00
       11  1    3    3    0    0 +5.5199456891e-02 +5.9830893957e-03 +2.9924891499e-02 6.3075650232e-02 5.1100000000e-04 0.0000e+00 1.0000e+00
      255  1    3    3    0    0 -7.0888007789e+01 +2.5216938146e+01 +1.6719757922e+01 1.4685214987e+02 1.2500000000e+02 0.0000e+00 0.0000e+00
      -11  1    4    4    0    0 -4.2458446433e-02 +3.8445837634e-02 +5.6658845991e-02 8.0568530180e-02 5.1100000000e-04 0.0000e+00 -1.0000e+00
      255  1    4    4    0    0 +7.0875266778e+01 -2.5261367073e+01 +1.8826953555e+02 2.3818450438e+02 1.2500000000e+02 0.0000e+00 0.0000e+00
<mgrwt>
<rscale>  0 0.32604869E+03</rscale>
<asrwt>0</asrwt>
<pdfrwt beam="1">  1        2 0.45404321E-01 0.32604869E+03</pdfrwt>
<pdfrwt beam="2">  1       -2 0.13854186E-01 0.32604869E+03</pdfrwt>
<totfact> 0.43517047E+03</totfact>
</mgrwt>
</event>
<event>
 8      1 +1.6198320e-01 2.61899500e+02 7.81860800e-03 1.10600700e-01
        2 -1    0    0  501    0 +0.0000000000e+00 +0.0000000000e+00 +1.1803834419e+02 1.1803834422e+02 2.5500000000e-03 0.0000e+00 1.0000e+00
       -2 -1    0    0    0  501 -0.0000000000e+00 -0.0000000000e+00 -1.4527346826e+02 1.4527346828e+02 2.5500000000e-03 0.0000e+00 -1.0000e+00
  1000101  2    1    2    0    0 +4.9036050999e+00 -2.6989819469e+01 -4.1065261236e+01 1.3449449694e+02 1.2509963361e+02 2.1554e+02 0.0000e+00
 -1000101  2    1    2    0    0 -4.9036050999e+00 +2.6989819469e+01 +1.3830137166e+01 1.2881731556e+02 1.2510048919e+02 7.6758e+00 0.0000e+00
       11  1    3    3    0    0 +9.5149544652e-02 -2.9885335877e-02 -7.5725954860e-02 1.2522479990e-01 5.1100000000e-04 0.0000e+00 1.0000e+00
      255  1    3    3    0    0 +4.8084555552e+00 -2.6959934133e+01 -4.0989535281e+01 1.3436927214e+02 1.2500000000e+02 0.0000e+00 0.0000e+00
      -11  1    4    4    0    0 +4.8844871422e-02 +1.0107449712e-01 -2.2370824523e-02 1.1446654683e-01 5.1100000000e-04 0.0000e+00 -1.0000e+00
      255  1    4    4    0    0 -4.9524499713e+00 +2.6888744972e+01 +1.3852507990e+01 1.2870284901e+02 1.2500000000e+02 0.0000e+00 0.0000e+00
<mgrwt>
<rscale>  0 0.26189952E+03</rscale>
<asrwt>0</asrwt>
<pdfrwt beam="1">  1        2 0.18159745E-01 0.26189952E+03</pdfrwt>
<pdfrwt beam="2">  1       -2 0.22349764E-01 0.26189952E+03</pdfrwt>
<totfact> 0.53318372E+03</totfact>
</mgrwt>
</event>
<event>
 8      1 +1.6198320e-01 3.28318700e+02 7.81860800e-03 1.07188300e-01
       -2 -1    0    0    0  501 -0.0000000000e+00 +0.0000000000e+00 +2.3842355401e+01 2.3842355537e+01 2.5500000000e-03 0.0000e+00 -1.0000e+00
        2 -1    0    0  501    0 +0.0000000000e+00 -0.0000000000e+00 -1.1302695029e+03 1.1302695029e+03 2.5500000000e-03 0.0000e+00 1.0000e+00
  1000101  2    1    2    0    0 +1.0460682071e+02 -1.4571473399e+01 -5.9529846521e+02 6.1740201878e+02 1.2510026114e+02 1.2611e+02 0.0000e+00
 -1000101  2    1    2    0    0 -1.0460682071e+02 +1.4571473399e+01 -5.1112868224e+02 5.3670983961e+02 1.2509998940e+02 5.9711e+01 0.0000e+00
       11  1    3    3    0    0 -3.9017265175e-03 -4.2914866810e-03 +9.1939445665e-03 1.0882557876e-02 5.1100000000e-04 0.0000e+00 1.0000e+00
      255  1    3    3    0    0 +1.0461072244e+02 -1.4567181912e+01 -5.9530765916e+02 6.1739113622e+02 1.2500000000e+02 0.0000e+00 0.0000e+00
      -11  1    4    4    0    0 -2.0921416403e-01 -6.7095294705e-03 -6.3017419165e-01 6.6402963575e-01 5.1100000000e-04 0.0000e+00 -1.0000e+00
      255  1    4    4    0    0 -1.0439760655e+02 +1.4578182928e+01 -5.1049850805e+02 5.3604580997e+02 1.2500000000e+02 0.0000e+00 0.0000e+00
<mgrwt>
<rscale>  0 0.32831867E+03</rscale>
<asrwt>0</asrwt>
<pdfrwt beam="1">  1        2 0.17388757E+00 0.32831867E+03</pdfrwt>
<pdfrwt beam="2">  1       -2 0.36680556E-02 0.32831867E+03</pdfrwt>
<totfact> 0.68903897E+03</totfact>
</mgrwt>
</event>
<event>
 8      1 +1.6198320e-01 2.63323500e+02 7.81860800e-03 1.10516300e-01
       -2 -1    0    0    0  501 -0.0000000000e+00 +0.0000000000e+00 +3.4404415418e+01 3.4404415512e+01 2.5500000000e-03 0.0000e+00 -1.0000e+00
        2 -1    0    0  501    0 +0.0000000000e+00 -0.0000000000e+00 -5.0385437372e+02 5.0385437372e+02 2.5500000000e-03 0.0000e+00 1.0000e+00
  1000101  2    1    2    0    0 -1.6205435973e+01 +3.6788228038e+01 -2.1776837889e+02 2.5434046816e+02 1.2510002806e+02 3.5239e+01 0.0000e+00
 -1000101  2    1    2    0    0 +1.6205435973e+01 -3.6788228038e+01 -2.5168157941e+02 2.8391832108e+02 1.2509998302e+02 1.2541e+02 0.0000e+00
       11  1    3    3    0    0 +1.0928367329e-02 +2.6996876129e-03 -3.3859292229e-01 3.3878037971e-01 5.1100000000e-04 0.0000e+00 1.0000e+00
      255  1    3    3    0    0 -1.6216364340e+01 +3.6785528351e+01 -2.1742978597e+02 2.5400168778e+02 1.2500000000e+02 0.0000e+00 0.0000e+00
      -11  1    4    4    0    0 +8.6298788849e-02 -5.5712280026e-03 -6.8182987512e-02 1.1012583914e-01 5.1100000000e-04 0.0000e+00 -1.0000e+00
      255  1    4    4    0    0 +1.6119137184e+01 -3.6782656810e+01 -2.5161339642e+02 2.8380819524e+02 1.2500000000e+02 0.0000e+00 0.0000e+00
<mgrwt>
<rscale>  0 0.26332349E+03</rscale>
<asrwt>0</asrwt>
<pdfrwt beam="1">  1        2 0.77516052E-01 0.26332349E+03</pdfrwt>
<pdfrwt beam="2">  1       -2 0.52929874E-02 0.26332349E+03</pdfrwt>
<totfact> 0.10984276E+04</totfact>
</mgrwt>
</event>
<event>
 8      1 +1.6198320e-01 3.03815900e+02 7.81860800e-03 1.08334900e-01
        2 -1    0    0  501    0 +0.0000000000e+00 +0.0000000000e+00 +7.6640471387e+02 7.6640471388e+02 2.5500000000e-03 0.0000e+00 1.0000e+00
       -2 -1    0    0    0  501 -0.0000000000e+00 -0.0000000000e+00 -3.0109443078e+01 3.0109443186e+01 2.5500000000e-03 0.0000e+00 -1.0000e+00
  1000101  2    1    2    0    0 -1.7244857235e+01 -5.4284019398e+01 +1.9860908791e+02 2.4153617539e+02 1.2510001743e+02 5.0924e+00 0.0000e+00
 -1000101  2    1    2    0    0 +1.7244857235e+01 +5.4284019398e+01 +5.3768618289e+02 5.5497798167e+02 1.2509991610e+02 1.1223e+01 0.0000e+00
       11  1    3    3    0    0 +3.1050788887e-02 -7.1871408267e-02 +3.1601114877e-01 3.2556559721e-01 5.1100000000e-04 0.0000e+00 1.0000e+00
      255  1    3    3    0    0 -1.7275908024e+01 -5.4212147990e+01 +1.9829307676e+02 2.4121060980e+02 1.2500000000e+02 0.0000e+00 0.0000e+00
      -11  1    4    4    0    0 -3.4345381644e-02 +1.3125334357e-01 +4.3061662086e-01 4.5148419764e-01 5.1100000000e-04 0.0000e+00 -1.0000e+00
      255  1    4    4    0    0 +1.7279202617e+01 +5.4152766055e+01 +5.3725556627e+02 5.5452649747e+02 1.2500000000e+02 0.0000e+00 0.0000e+00
<mgrwt>
<rscale>  0 0.30381586E+03</rscale>
<asrwt>0</asrwt>
<pdfrwt beam="1">  1        2 0.11790843E+00 0.30381586E+03</pdfrwt>
<pdfrwt beam="2">  1       -2 0.46322215E-02 0.30381586E+03</pdfrwt>
<totfact> 0.82478946E+03</totfact>
</mgrwt>
</event>
<event>
 8      1 +1.6198320e-01 2.89421400e+02 7.81860800e-03 1.09065200e-01
        2 -1    0    0  501    0 +0.0000000000e+00 +0.0000000000e+00 +1.7107469441e+02 1.7107469443e+02 2.5500000000e-03 0.0000e+00 1.0000e+00
       -2 -1    0    0    0  501 -0.0000000000e+00 -0.0000000000e+00 -1.2240958010e+02 1.2240958013e+02 2.5500000000e-03 0.0000e+00 -1.0000e+00
  1000101  2    1    2    0    0 +3.4707894261e+01 +1.2089897919e+01 -3.9320873914e+01 1.3618725846e+02 1.2510009867e+02 6.0445e+01 0.0000e+00
 -1000101  2    1    2    0    0 -3.4707894261e+01 -1.2089897919e+01 +8.7985988226e+01 1.5729701610e+02 1.2510001436e+02 2.6700e+02 0.0000e+00
       11  1    3    3    0    0 -4.1409102785e-03 +3.2705417060e-03 +7.0572696951e-02 7.0771535641e-02 5.1100000000e-04 0.0000e+00 1.0000e+00
      255  1    3    3    0    0 +3.4712035172e+01 +1.2086627377e+01 -3.9391446611e+01 1.3611648693e+02 1.2500000000e+02 0.0000e+00 0.0000e+00
      -11  1    4    4    0    0 -1.1258836068e-01 +1.1749357196e-02 +2.0828461304e-02 1.1510113934e-01 5.1100000000e-04 0.0000e+00 -1.0000e+00
      255  1    4    4    0    0 -3.4595305901e+01 -1.2101647276e+01 +8.7965159764e+01 1.5718191496e+02 1.2500000000e+02 0.0000e+00 0.0000e+00
<mgrwt>
<rscale>  0 0.28942136E+03</rscale>
<asrwt>0</asrwt>
<pdfrwt beam="1">  1        2 0.26319184E-01 0.28942136E+03</pdfrwt>
<pdfrwt beam="2">  1       -2 0.18832243E-01 0.28942136E+03</pdfrwt>
<totfact> 0.47122797E+03</totfact>
</mgrwt>
</event>
<event>
 8      1 +1.6198320e-01 3.89066500e+02 7.81860800e-03 1.04763300e-01
        3 -1    0    0  501    0 +0.0000000000e+00 +0.0000000000e+00 +3.3063103256e+02 3.3063104798e+02 1.0100000000e-01 0.0000e+00 1.0000e+00
       -3 -1    0    0    0  501 -0.0000000000e+00 -0.0000000000e+00 -1.1445738572e+02 1.1445743029e+02 1.0100000000e-01 0.0000e+00 -1.0000e+00
  1000101  2    1    2    0    0 -1.5308668017e+01 +1.2279853773e+02 +2.0297143290e+02 2.6862846473e+02 1.2510001321e+02 4.1867e+00 0.0000e+00
 -1000101  2    1    2    0    0 +1.5308668017e+01 -1.2279853773e+02 +1.3202213937e+01 1.7646001354e+02 1.2509996698e+02 3.7822e+01 0.0000e+00
       11  1    3    3    0    0 -8.7067110513e-02 +1.3231216630e-01 +2.9554661474e-01 3.3531366464e-01 5.1100000000e-04 0.0000e+00 1.0000e+00
      255  1    3    3    0    0 -1.5221600906e+01 +1.2266622557e+02 +2.0267588628e+02 2.6829315107e+02 1.2500000000e+02 0.0000e+00 0.0000e+00
      -11  1    4    4    0    0 -6.6022131210e-02 -6.5330371813e-03 -1.6686409537e-02 6.8412716423e-02 5.1100000000e-04 0.0000e+00 -1.0000e+00
      255  1    4    4    0    0 +1.5374690148e+01 -1.2279200469e+02 +1.3218900347e+01 1.7639160082e+02 1.2500000000e+02 0.0000e+00 0.0000e+00
<mgrwt>
<rscale>  0 0.38906646E+03</rscale>
<asrwt>0</asrwt>
<pdfrwt beam="1">  1        3 0.50866317E-01 0.38906646E+03</pdfrwt>
<pdfrwt beam="2">  1       -3 0.17608833E-01 0.38906646E+03</pdfrwt>
<totfact> 0.28225836E+02</totfact>
</mgrwt>
</event>
<event>
 8      1 +1.6198320e-01 5.79786400e+02 7.81860800e-03 9.94825400e-02
       -2 -1    0    0    0  501 -0.0000000000e+00 +0.0000000000e+00 +6.1595828593e+02 6.1595828593e+02 2.5500000000e-03 0.0000e+00 1.0000e+00
        2 -1    0    0  501    0 +0.0000000000e+00 -0.0000000000e+00 -1.3643467190e+02 1.3643467192e+02 2.5500000000e-03 0.0000e+00 -1.0000e+00
  1000101  2    1    2    0    0 -1.1272124040e+02 +1.7027169337e+02 +2.7756261915e+01 2.4107870747e+02 1.2509998210e+02 1.6454e+02 0.0000e+00
 -1000101  2    1    2    0    0 +1.1272124040e+02 -1.7027169337e+02 +4.5176735211e+02 5.1131425038e+02 1.2509993848e+02 4.8015e+01 0.0000e+00
       11  1    3    3    0    0 -1.9064052885e-01 +2.0038320004e-01 +9.9720214806e-02 2.9400955845e-01 5.1100000000e-04 0.0000e+00 1.0000e+00
      255  1    3    3    0    0 -1.1253059987e+02 +1.7007131017e+02 +2.7656541700e+01 2.4078469791e+02 1.2500000000e+02 0.0000e+00 0.0000e+00
      -11  1    4    4    0    0 -1.9908671958e-02 -1.1789664332e-01 +1.4979486313e-01 1.9166307903e-01 5.1100000000e-04 0.0000e+00 -1.0000e+00
      255  1    4    4    0    0 +1.1274114907e+02 -1.7015379673e+02 +4.5161755725e+02 5.1112258730e+02 1.2500000000e+02 0.0000e+00 0.0000e+00
<mgrwt>
<rscale>  0 0.57978640E+03</rscale>
<asrwt>0</asrwt>
<pdfrwt beam="1">  1        2 0.20989950E-01 0.57978640E+03</pdfrwt>
<pdfrwt beam="2">  1       -2 0.94762813E-01 0.57978640E+03</pdfrwt>
<totfact> 0.25468549E+02</totfact>
</mgrwt>
</event>
<event>
 8      1 +1.6198320e-01 4.15496600e+02 7.81860800e-03 1.03854200e-01
        2 -1    0    0  501    0 +0.0000000000e+00 +0.0000000000e+00 +6.1091865238e+02 6.1091865239e+02 2.5500000000e-03 0.0000e+00 1.0000e+00
       -2 -1    0    0    0  501 -0.0000000000e+00 -0.0000000000e+00 -7.0646657163e+01 7.0646657209e+01 2.5500000000e-03 0.0000e+00 -1.0000e+00
  1000101  2    1    2    0    0 -4.1145724763e+01 -2.2864777288e+01 +9.2535672002e+00 1.3398303735e+02 1.2510018819e+02 2.2338e+01 0.0000e+00
 -1000101  2    1    2    0    0 +4.1145724763e+01 +2.2864777288e+01 +5.3101842802e+02 5.4758227224e+02 1.2509998110e+02 2.5437e+02 0.0000e+00
       11  1    3    3    0    0 -1.0560437231e-01 -4.3575620891e-02 +7.8869178834e-02 1.3882264469e-01 5.1100000000e-04 0.0000e+00 1.0000e+00
      255  1    3    3    0    0 -4.1040120391e+01 -2.2821201667e+01 +9.1746980214e+00 1.3384421471e+02 1.2500000000e+02 0.0000e+00 0.0000e+00
      -11  1    4    4    0    0 -2.2823354145e-02 -6.8058077600e-02 +2.1029774009e-01 2.2221207894e-01 5.1100000000e-04 0.0000e+00 -1.0000e+00
      255  1    4    4    0    0 +4.1168548118e+01 +2.2932835365e+01 +5.3080813028e+02 5.4736006016e+02 1.2500000000e+02 0.0000e+00 0.0000e+00
<mgrwt>
<rscale>  0 0.41549662E+03</rscale>
<asrwt>0</asrwt>
<pdfrwt beam="1">  1        2 0.93987489E-01 0.41549662E+03</pdfrwt>
<pdfrwt beam="2">  1       -2 0.10868716E-01 0.41549662E+03</pdfrwt>
<totfact> 0.28838164E+03</totfact>
</mgrwt>
</event>
<event>
 8      1 +1.6198320e-01 3.41623200e+02 7.81860800e-03 1.06610700e-01
        2 -1    0    0  501    0 +0.0000000000e+00 +0.0000000000e+00 +1.6096528607e+02 1.6096528609e+02 2.5500000000e-03 0.0000e+00 1.0000e+00
       -2 -1    0    0    0  501 -0.0000000000e+00 -0.0000000000e+00 -1.8126019855e+02 1.8126019857e+02 2.5500000000e-03 0.0000e+00 -1.0000e+00
  1000101  2    1    2    0    0 -3.4610376887e+00 +2.0284561296e+01 +1.0452351246e+02 1.6431254478e+02 1.2509998204e+02 1.4588e+01 0.0000e+00
 -1000101  2    1    2    0    0 +3.4610376887e+00 -2.0284561296e+01 -1.2481842494e+02 1.7791293988e+02 1.2509969130e+02 1.6558e+00 0.0000e+00
       11  1    3    3    0    0 -5.5529734667e-02 +1.0224955728e-01 +1.0333681258e-01 1.5561902632e-01 5.1100000000e-04 0.0000e+00 1.0000e+00
      255  1    3    3    0    0 -3.4055079541e+00 +2.0182311739e+01 +1.0442017564e+02 1.6415692575e+02 1.2500000000e+02 0.0000e+00 0.0000e+00
      -11  1    4    4    0    0 +9.2328133820e-04 +7.4134457622e-02 -1.4766486291e-01 1.6523299645e-01 5.1100000000e-04 0.0000e+00 -1.0000e+00
      255  1    4    4    0    0 +3.4601144074e+00 -2.0358695754e+01 -1.2467076008e+02 1.7774770689e+02 1.2500000000e+02 0.0000e+00 0.0000e+00
<mgrwt>
<rscale>  0 0.34162318E+03</rscale>
<asrwt>0</asrwt>
<pdfrwt beam="1">  1        2 0.24763890E-01 0.34162318E+03</pdfrwt>
<pdfrwt beam="2">  1       -2 0.27886184E-01 0.34162318E+03</pdfrwt>
<totfact> 0.25495058E+03</totfact>
</mgrwt>
</event>
<event>
 8      1 +1.6198320e-01 5.30682200e+02 7.81860800e-03 1.00606700e-01
        2 -1    0    0  501    0 +0.0000000000e+00 +0.0000000000e+00 +2.1908316588e+02 2.1908316590e+02 2.5500000000e-03 0.0000e+00 1.0000e+00
       -2 -1    0    0    0  501 -0.0000000000e+00 -0.0000000000e+00 -3.2136606703e+02 3.2136606704e+02 2.5500000000e-03 0.0000e+00 -1.0000e+00
  1000101  2    1    2    0    0 -1.3037226029e+01 +1.9282744717e+01 -2.8826599638e+02 3.1510170540e+02 1.2509998631e+02 6.8743e+01 0.0000e+00
 -1000101  2    1    2    0    0 +1.3037226029e+01 -1.9282744717e+01 +1.8598309523e+02 2.2534752754e+02 1.2509997182e+02 5.5664e+01 0.0000e+00
       11  1    3    3    0    0 +7.7961896460e-02 +3.6906319195e-02 -1.1359073793e-01 1.4262976744e-01 5.1100000000e-04 0.0000e+00 1.0000e+00
      255  1    3    3    0    0 -1.3115187926e+01 +1.9245838398e+01 -2.8815240564e+02 3.1495907564e+02 1.2500000000e+02 0.0000e+00 0.0000e+00
      -11  1    4    4    0    0 +1.2901794105e-02 +8.0392803883e-02 +7.1539329931e-02 1.0838632781e-01 5.1100000000e-04 0.0000e+00 -1.0000e+00
      255  1    4    4    0    0 +1.3024324235e+01 -1.9363137521e+01 +1.8591155590e+02 2.2523914121e+02 1.2500000000e+02 0.0000e+00 0.0000e+00
<mgrwt>
<rscale>  0 0.53068219E+03</rscale>
<asrwt>0</asrwt>
<pdfrwt beam="1">  1        2 0.33705102E-01 0.53068219E+03</pdfrwt>
<pdfrwt beam="2">  1       -2 0.49440934E-01 0.53068219E+03</pdfrwt>
<totfact> 0.60839907E+02</totfact>
</mgrwt>
</event>
<event>
 8      1 +1.6198320e-01 5.70179100e+02 7.81860800e-03 9.96928200e-02
        2 -1    0    0  501    0 +0.0000000000e+00 +0.0000000000e+00 +5.9738907354e+02 5.9738907354e+02 2.5500000000e-03 0.0000e+00 1.0000e+00
       -2 -1    0    0    0  501 -0.0000000000e+00 -0.0000000000e+00 -1.3605209912e+02 1.3605209915e+02 2.5500000000e-03 0.0000e+00 -1.0000e+00
  1000101  2    1    2    0    0 -1.7618195022e+02 -4.3646354691e+01 -1.8734393516e+00 2.2045092662e+02 1.2510002962e+02 4.1328e+02 0.0000e+00
 -1000101  2    1    2    0    0 +1.7618195022e+02 +4.3646354691e+01 +4.6321041377e+02 5.1299024607e+02 1.2510004507e+02 2.2678e+02 0.0000e+00
       11  1    3    3    0    0 -4.0646086532e-03 -5.5607752615e-04 -6.0472698677e-02 6.0613848849e-02 5.1100000000e-04 0.0000e+00 1.0000e+00
      255  1    3    3    0    0 -1.7617788562e+02 -4.3645798613e+01 -1.8129666529e+00 2.2039031277e+02 1.2500000000e+02 0.0000e+00 0.0000e+00
      -11  1    4    4    0    0 +2.4419014790e-01 +1.2321453939e-01 +4.8940312040e-01 5.6064813068e-01 5.1100000000e-04 0.0000e+00 -1.0000e+00
      255  1    4    4    0    0 +1.7593776008e+02 +4.3523140151e+01 +4.6272101064e+02 5.1242959794e+02 1.2500000000e+02 0.0000e+00 0.0000e+00
<mgrwt>
<rscale>  0 0.57017905E+03</rscale>
<asrwt>0</asrwt>
<pdfrwt beam="1">  1        2 0.91906010E-01 0.57017905E+03</pdfrwt>
<pdfrwt beam="2">  1       -2 0.20931093E-01 0.57017905E+03</pdfrwt>
<totfact> 0.98555169E+02</totfact>
</mgrwt>
</event>
<event>
 8      1 +1.6198320e-01 3.21711300e+02 7.81860800e-03 1.07486400e-01
        1 -1    0    0  501    0 +0.0000000000e+00 +0.0000000000e+00 +1.8106859783e+02 1.8106859790e+02 5.0400000000e-03 0.0000e+00 1.0000e+00
       -1 -1    0    0    0  501 -0.0000000000e+00 -0.0000000000e+00 -1.4289913414e+02 1.4289913423e+02 5.0400000000e-03 0.0000e+00 -1.0000e+00
  1000101  2    1    2    0    0 +7.3419277063e+00 +6.4960073521e+01 +9.6767353071e+01 1.7113641028e+02 1.2510010092e+02 3.3332e+00 0.0000e+00
 -1000101  2    1    2    0    0 -7.3419277063e+00 -6.4960073521e+01 -5.8597889383e+01 1.5283132184e+02 1.2509990104e+02 5.8517e+01 0.0000e+00
       11  1    3    3    0    0 +9.6846511737e-02 +8.1868436269e-02 +4.8376033551e-02 1.3572836636e-01 5.1100000000e-04 0.0000e+00 1.0000e+00
      255  1    3    3    0    0 +7.2450811945e+00 +6.4878205085e+01 +9.6718977038e+01 1.7100068192e+02 1.2500000000e+02 0.0000e+00 0.0000e+00
      -11  1    4    4    0    0 +1.3642237373e-02 -1.3449958642e-01 -1.3174334839e-01 1.8876657637e-01 5.1100000000e-04 0.0000e+00 -1.0000e+00
      255  1    4    4    0    0 -7.3555699436e+00 -6.4825573934e+01 -5.8466146034e+01 1.5264255526e+02 1.2500000000e+02 0.0000e+00 0.0000e+00
<mgrwt>
<rscale>  0 0.32171134E+03</rscale>
<asrwt>0</asrwt>
<pdfrwt beam="1">  1        1 0.27856707E-01 0.32171134E+03</pdfrwt>
<pdfrwt beam="2">  1       -1 0.21984482E-01 0.32171134E+03</pdfrwt>
<totfact> 0.28752493E+03</totfact>
</mgrwt>
</event>
<event>
 8      1 +1.6198320e-01 2.63698200e+02 7.81860800e-03 1.10494100e-01
        2 -1    0    0  501    0 +0.0000000000e+00 +0.0000000000e+00 +9.1768019491e+02 9.1768019491e+02 2.5500000000e-03 0.0000e+00 1.0000e+00
       -2 -1    0    0    0  501 -0.0000000000e+00 -0.0000000000e+00 -1.8943623778e+01 1.8943623950e+01 2.5500000000e-03 0.0000e+00 -1.0000e+00
  1000101  2    1    2    0    0 +3.7178325649e+01 +1.8578641719e+01 +4.5859208440e+02 4.7716253573e+02 1.2509992727e+02 2.8854e+01 0.0000e+00
 -1000101  2    1    2    0    0 -3.7178325649e+01 -1.8578641719e+01 +4.4014448673e+02 4.5946128314e+02 1.2510039038e+02 8.8521e+01 0.0000e+00
       11  1    3    3    0    0 +1.0758829488e-02 -6.8739128517e-02 +5.0247066618e-01 5.0726507044e-01 5.1100000000e-04 0.0000e+00 1.0000e+00
      255  1    3    3    0    0 +3.7167566820e+01 +1.8647380847e+01 +4.5808961373e+02 4.7665527066e+02 1.2500000000e+02 0.0000e+00 0.0000e+00
      -11  1    4    4    0    0 +3.4111672685e-02 +4.4246910595e-02 +6.8514361015e-02 8.8407432362e-02 5.1100000000e-04 0.0000e+00 -1.0000e+00
      255  1    4    4    0    0 -3.7212437322e+01 -1.8622888629e+01 +4.4007597237e+02 4.5937287570e+02 1.2500000000e+02 0.0000e+00 0.0000e+00
<mgrwt>
<rscale>  0 0.26369822E+03</rscale>
<asrwt>0</asrwt>
<pdfrwt beam="1">  1        2 0.14118155E+00 0.26369822E+03</pdfrwt>
<pdfrwt beam="2">  1       -2 0.29144040E-02 0.26369822E+03</pdfrwt>
<totfact> 0.13022115E+04</totfact>
</mgrwt>
</event>
<event>
 8      1 +1.6198320e-01 3.71706000e+02 7.81860800e-03 1.05404300e-01
       -2 -1    0    0    0  501 -0.0000000000e+00 +0.0000000000e+00 +5.0605590364e+01 5.0605590428e+01 2.5500000000e-03 0.0000e+00 -1.0000e+00
        2 -1    0    0  501    0 +0.0000000000e+00 -0.0000000000e+00 -6.8255982585e+02 6.8255982585e+02 2.5500000000e-03 0.0000e+00 1.0000e+00
  1000101  2    1    2    0    0 +5.2995562172e+00 +6.5128128605e+01 -5.5448308003e+02 5.7216368809e+02 1.2510012586e+02 1.5347e+02 0.0000e+00
 -1000101  2    1    2    0    0 -5.2995562172e+00 -6.5128128605e+01 -7.7471155451e+01 1.6100172819e+02 1.2510003247e+02 2.5409e+02 0.0000e+00
       11  1    3    3    0    0 -2.9937903196e-02 +1.1304379318e-01 -8.5925771402e-01 8.6717890740e-01 5.1100000000e-04 0.0000e+00 1.0000e+00
      255  1    3    3    0    0 +5.3294941204e+00 +6.5015084812e+01 -5.5362382232e+02 5.7129650918e+02 1.2500000000e+02 0.0000e+00 0.0000e+00
      -11  1    4    4    0    0 +2.0768096852e-02 -1.1599571617e-01 +1.1498674407e-02 1.1840101626e-01 5.1100000000e-04 0.0000e+00 -1.0000e+00
      255  1    4    4    0    0 -5.3203243141e+00 -6.5012132889e+01 -7.7482654125e+01 1.6088332718e+02 1.2500000000e+02 0.0000e+00 0.0000e+00
<mgrwt>
<rscale>  0 0.37170603E+03</rscale>
<asrwt>0</asrwt>
<pdfrwt beam="1">  1        2 0.10500920E+00 0.37170603E+03</pdfrwt>
<pdfrwt beam="2">  1       -2 0.77854760E-02 0.37170603E+03</pdfrwt>
<totfact> 0.42895817E+03</totfact>
</mgrwt>
</event>
<event>
 8      1 +1.6198320e-01 4.22282400e+02 7.81860800e-03 1.03632600e-01
        2 -1    0    0  501    0 +0.0000000000e+00 +0.0000000000e+00 +7.4895815863e+02 7.4895815863e+02 2.5500000000e-03 0.0000e+00 1.0000e+00
       -2 -1    0    0    0  501 -0.0000000000e+00 -0.0000000000e+00 -5.9523499179e+01 5.9523499234e+01 2.5500000000e-03 0.0000e+00 -1.0000e+00
  1000101  2    1    2    0    0 +9.5542369608e+01 -1.3007256222e+02 +2.4191144000e+02 3.1657286859e+02 1.2510004193e+02 1.8930e+02 0.0000e+00
 -1000101  2    1    2    0    0 -9.5542369608e+01 +1.3007256222e+02 +4.4752321945e+02 4.9190878927e+02 1.2509999674e+02 1.3810e+02 0.0000e+00
       11  1    3    3    0    0 +1.9781622613e-01 -1.3165523192e-01 +2.8992902578e-01 3.7486458958e-01 5.1100000000e-04 0.0000e+00 1.0000e+00
      255  1    3    3    0    0 +9.5344553382e+01 -1.2994090699e+02 +2.4162151097e+02 3.1619800400e+02 1.2500000000e+02 0.0000e+00 0.0000e+00
      -11  1    4    4    0    0 -1.3248029318e-01 +6.9676234274e-02 +1.8568002079e-01 2.3850185942e-01 5.1100000000e-04 0.0000e+00 -1.0000e+00
      255  1    4    4    0    0 -9.5409889314e+01 +1.3000288599e+02 +4.4733753943e+02 4.9167028741e+02 1.2500000000e+02 0.0000e+00 0.0000e+00
<mgrwt>
<rscale>  0 0.42228242E+03</rscale>
<asrwt>0</asrwt>
<pdfrwt beam="1">  1        2 0.11522433E+00 0.42228242E+03</pdfrwt>
<pdfrwt beam="2">  1       -2 0.91574614E-02 0.42228242E+03</pdfrwt>
<totfact> 0.29605373E+03</totfact>
</mgrwt>
</event>
<event>
 8      1 +1.6198320e-01 2.64322800e+02 7.81860800e-03 1.10457300e-01
        2 -1    0    0  501    0 +0.0000000000e+00 +0.0000000000e+00 +2.3791586683e+02 2.3791586684e+02 2.5500000000e-03 0.0000e+00 1.0000e+00
       -2 -1    0    0    0  501 -0.0000000000e+00 -0.0000000000e+00 -7.3415191422e+01 7.3415191466e+01 2.5500000000e-03 0.0000e+00 -1.0000e+00
  1000101  2    1    2    0    0 -3.9015546218e+01 +1.6132572747e+01 +7.5366882669e+01 1.5202848778e+02 1.2510004533e+02 4.7888e+01 0.0000e+00
 -1000101  2    1    2    0    0 +3.9015546218e+01 -1.6132572747e+01 +8.9133792738e+01 1.5930257053e+02 1.2509997290e+02 1.0787e+02 0.0000e+00
       11  1    3    3    0    0 +8.2228695756e-03 -7.3498780183e-02 +9.1816874648e-02 1.1789947355e-01 5.1100000000e-04 0.0000e+00 1.0000e+00
      255  1    3    3    0    0 -3.9023769088e+01 +1.6206071527e+01 +7.5275065794e+01 1.5191058830e+02 1.2500000000e+02 0.0000e+00 0.0000e+00
      -11  1    4    4    0    0 -8.6043239941e-04 -8.5778030159e-02 -2.0461686051e-03 8.5808267256e-02 5.1100000000e-04 0.0000e+00 -1.0000e+00
      255  1    4    4    0    0 +3.9016406650e+01 -1.6046794717e+01 +8.9135838907e+01 1.5921676227e+02 1.2500000000e+02 0.0000e+00 0.0000e+00
<mgrwt>
<rscale>  0 0.26432282E+03</rscale>
<asrwt>0</asrwt>
<pdfrwt beam="1">  1        2 0.36602441E-01 0.26432282E+03</pdfrwt>
<pdfrwt beam="2">  1       -2 0.11294645E-01 0.26432282E+03</pdfrwt>
<totfact> 0.76023017E+03</totfact>
</mgrwt>
</event>
<event>
 8      1 +1.6198320e-01 2.80418300e+02 7.81860800e-03 1.09546100e-01
        2 -1    0    0  501    0 +0.0000000000e+00 +0.0000000000e+00 +1.4268129307e+03 1.4268129307e+03 2.5500000000e-03 0.0000e+00 1.0000e+00
       -2 -1    0    0    0  501 -0.0000000000e+00 -0.0000000000e+00 -1.3777988227e+01 1.3777988463e+01 2.5500000000e-03 0.0000e+00 -1.0000e+00
  1000101  2    1    2    0    0 +3.7349639550e+01 +3.1818890901e+01 +5.0094891124e+02 5.1865905421e+02 1.2509982195e+02 5.2525e+01 0.0000e+00
 -1000101  2    1    2    0    0 -3.7349639550e+01 -3.1818890901e+01 +9.1208603126e+02 9.2193186498e+02 1.2509995144e+02 6.5685e+01 0.0000e+00
       11  1    3    3    0    0 +3.6560358970e-02 +4.4403075586e-02 +8.0133483572e-01 8.0339658515e-01 5.1100000000e-04 0.0000e+00 1.0000e+00
      255  1    3    3    0    0 +3.7313079191e+01 +3.1774487826e+01 +5.0014757640e+02 5.1785565763e+02 1.2500000000e+02 0.0000e+00 0.0000e+00
      -11  1    4    4    0    0 -1.0115426349e-01 -7.0083628806e-02 +5.1055940620e-01 5.2518098635e-01 5.1100000000e-04 0.0000e+00 -1.0000e+00
      255  1    4    4    0    0 -3.7248485287e+01 -3.1748807273e+01 +9.1157547185e+02 9.2140668399e+02 1.2500000000e+02 0.0000e+00 0.0000e+00
<mgrwt>
<rscale>  0 0.28041834E+03</rscale>
<asrwt>0</asrwt>
<pdfrwt beam="1">  1        2 0.21950960E+00 0.28041834E+03</pdfrwt>
<pdfrwt beam="2">  1       -2 0.21196913E-02 0.28041834E+03</pdfrwt>
<totfact> 0.10606276E+04</totfact>
</mgrwt>
</event>
<event>
 8      1 +1.6198320e-01 2.67937700e+02 7.81860800e-03 1.10246600e-01
       -2 -1    0    0    0  501 -0.0000000000e+00 +0.0000000000e+00 +8.6961547084e+00 8.6961550823e+00 2.5500000000e-03 0.0000e+00 -1.0000e+00
        2 -1    0    0  501    0 +0.0000000000e+00 -0.0000000000e+00 -2.0638612355e+03 2.0638612355e+03 2.5500000000e-03 0.0000e+00 1.0000e+00
  1000101  2    1    2    0    0 +1.9294435297e+01 +5.5997132713e+00 -6.9094269887e+02 7.0246383396e+02 1.2509993154e+02 2.3402e+02 0.0000e+00
 -1000101  2    1    2    0    0 -1.9294435297e+01 -5.5997132713e+00 -1.3642223819e+03 1.3700935566e+03 1.2510001821e+02 2.4901e+02 0.0000e+00
       11  1    3    3    0    0 -4.1929934251e-02 +8.4287179312e-02 -6.2663129535e-01 6.3366354591e-01 5.1100000000e-04 0.0000e+00 1.0000e+00
      255  1    3    3    0    0 +1.9336365232e+01 +5.5154260920e+00 -6.9031606758e+02 7.0183017041e+02 1.2500000000e+02 0.0000e+00 0.0000e+00
      -11  1    4    4    0    0 -5.7775975031e-02 +3.3963581903e-02 -2.5324927783e-01 2.6196764310e-01 5.1100000000e-04 0.0000e+00 -1.0000e+00
      255  1    4    4    0    0 -1.9236659322e+01 -5.6336768532e+00 -1.3639691326e+03 1.3698315889e+03 1.2500000000e+02 0.0000e+00 0.0000e+00
<mgrwt>
<rscale>  0 0.26793773E+03</rscale>
<asrwt>0</asrwt>
<pdfrwt beam="1">  1        2 0.31751672E+00 0.26793773E+03</pdfrwt>
<pdfrwt beam="2">  1       -2 0.13378716E-02 0.26793773E+03</pdfrwt>
<totfact> 0.95857749E+03</totfact>
</mgrwt>
</event>
<event>
 8      1 +1.6198320e-01 5.41190200e+02 7.81860800e-03 1.00355400e-01
        2 -1    0    0  501    0 +0.0000000000e+00 +0.0000000000e+00 +1.0063320333e+03 1.0063320333e+03 2.5500000000e-03 0.0000e+00 1.0000e+00
       -2 -1    0    0    0  501 -0.0000000000e+00 -0.0000000000e+00 -7.2760981482e+01 7.2760981527e+01 2.5500000000e-03 0.0000e+00 -1.0000e+00
  1000101  2    1    2    0    0 -3.6835977691e+01 -2.3709454743e+02 +4.6867589463e+02 5.4118189784e+02 1.2510011463e+02 1.5333e+01 0.0000e+00
 -1000101  2    1    2    0    0 +3.6835977691e+01 +2.3709454743e+02 +4.6489515722e+02 5.3791111701e+02 1.2510055527e+02 1.1158e+02 0.0000e+00
       11  1    3    3    0    0 -9.2650437280e-03 -2.4411551501e-01 +6.3894036269e-01 6.8404917506e-01 5.1100000000e-04 0.0000e+00 1.0000e+00
      255  1    3    3    0    0 -3.6826712647e+01 -2.3685043191e+02 +4.6803695426e+02 5.4049784867e+02 1.2500000000e+02 0.0000e+00 0.0000e+00
      -11  1    4    4    0    0 -2.6464076310e-02 +2.9179751501e-01 +3.9905654613e-01 4.9506820261e-01 5.1100000000e-04 0.0000e+00 -1.0000e+00
      255  1    4    4    0    0 +3.6862441767e+01 +2.3680274991e+02 +4.6449610067e+02 5.3741604881e+02 1.2500000000e+02 0.0000e+00 0.0000e+00
<mgrwt>
<rscale>  0 0.54119019E+03</rscale>
<asrwt>0</asrwt>
<pdfrwt beam="1">  1        2 0.15482031E+00 0.54119019E+03</pdfrwt>
<pdfrwt beam="2">  1       -2 0.11193998E-01 0.54119019E+03</pdfrwt>
<totfact> 0.14350714E+03</totfact>
</mgrwt>
</event>
<event>
 8      1 +1.6198320e-01 3.50930500e+02 7.81860800e-03 1.06223400e-01
        2 -1    0    0  501    0 +0.0000000000e+00 +0.0000000000e+00 +1.2966601827e+02 1.2966601829e+02 2.5500000000e-03 0.0000e+00 1.0000e+00
       -2 -1    0    0    0  501 -0.0000000000e+00 -0.0000000000e+00 -2.3744123665e+02 2.3744123666e+02 2.5500000000e-03 0.0000e+00 -1.0000e+00
  1000101  2    1    2    0    0 -4.7405034736e+01 -5.3322076024e+01 -1.5874577060e+02 2.1433795223e+02 1.2510018775e+02 7.9324e+01 0.0000e+00
 -1000101  2    1    2    0    0 +4.7405034736e+01 +5.3322076024e+01 +5.0970552217e+01 1.5276930272e+02 1.2509988630e+02 1.3953e+02 0.0000e+00
       11  1    3    3    0    0 -2.4827913055e-02 -1.4769464937e-01 -1.5776691393e-01 2.1753343415e-01 5.1100000000e-04 0.0000e+00 1.0000e+00
      255  1    3    3    0    0 -4.7380206823e+01 -5.3174381374e+01 -1.5858800368e+02 2.1412041880e+02 1.2500000000e+02 0.0000e+00 0.0000e+00
      -11  1    4    4    0    0 +9.5696801296e-02 -1.7160908957e-02 +9.8315939351e-02 1.3827024129e-01 5.1100000000e-04 0.0000e+00 -1.0000e+00
      255  1    4    4    0    0 +4.7309337934e+01 +5.3339236933e+01 +5.0872236278e+01 1.5263103248e+02 1.2500000000e+02 0.0000e+00 0.0000e+00
<mgrwt>
<rscale>  0 0.35093053E+03</rscale>
<asrwt>0</asrwt>
<pdfrwt beam="1">  1        2 0.19948618E-01 0.35093053E+03</pdfrwt>
<pdfrwt beam="2">  1       -2 0.36529421E-01 0.35093053E+03</pdfrwt>
<totfact> 0.19830295E+03</totfact>
</mgrwt>
</event>
<event>
 8      1 +1.6198320e-01 5.62986500e+02 7.81860800e-03 9.98532000e-02
        2 -1    0    0  501    0 +0.0000000000e+00 +0.0000000000e+00 +4.2810911669e+02 4.2810911670e+02 2.5500000000e-03 0.0000e+00 1.0000e+00
       -2 -1    0    0    0  501 -0.0000000000e+00 -0.0000000000e+00 -1.8508938909e+02 1.8508938911e+02 2.5500000000e-03 0.0000e+00 -1.0000e+00
  1000101  2    1    2    0    0 -9.8706412143e+01 +1.9002159443e+02 +2.6656938108e+02 3.6408848269e+02 1.2510006453e+02 1.6035e+02 0.0000e+00
 -1000101  2    1    2    0    0 +9.8706412143e+01 -1.9002159443e+02 -2.3549653485e+01 2.4911002312e+02 1.2510018103e+02 4.5394e+01 0.0000e+00
       11  1    3    3    0    0 -3.9297036045e-02 +7.0171461807e-02 +2.5932816352e-01 2.7151362509e-01 5.1100000000e-04 0.0000e+00 1.0000e+00
      255  1    3    3    0    0 -9.8667115107e+01 +1.8995142297e+02 +2.6631005292e+02 3.6381696906e+02 1.2500000000e+02 0.0000e+00 0.0000e+00
      -11  1    4    4    0    0 +8.4987401212e-02 -3.5792991324e-02 -7.4047272073e-02 1.1826773108e-01 5.1100000000e-04 0.0000e+00 -1.0000e+00
      255  1    4    4    0    0 +9.8621424742e+01 -1.8998580144e+02 -2.3475606213e+01 2.4899175539e+02 1.2500000000e+02 0.0000e+00 0.0000e+00
<mgrwt>
<rscale>  0 0.56298652E+03</rscale>
<asrwt>0</asrwt>
<pdfrwt beam="1">  1        2 0.65862942E-01 0.56298652E+03</pdfrwt>
<pdfrwt beam="2">  1       -2 0.28475290E-01 0.56298652E+03</pdfrwt>
<totfact> 0.83502758E+02</totfact>
</mgrwt>
</event>
<event>
 8      1 +1.6198320e-01 8.55200600e+02 7.81860800e-03 9.48338300e-02
       -2 -1    0    0    0  501 -0.0000000000e+00 +0.0000000000e+00 +2.3926813103e+02 2.3926813105e+02 2.5500000000e-03 0.0000e+00 -1.0000e+00
        2 -1    0    0  501    0 +0.0000000000e+00 -0.0000000000e+00 -7.6417207621e+02 7.6417207622e+02 2.5500000000e-03 0.0000e+00 1.0000e+00
  1000101  2    1    2    0    0 +1.1441411149e+02 -2.0437654694e+01 -7.2243031668e+02 7.4233678450e+02 1.2510016999e+02 2.0406e+01 0.0000e+00
 -1000101  2    1    2    0    0 -1.1441411149e+02 +2.0437654694e+01 +1.9752637149e+02 2.6110342276e+02 1.2510013311e+02 1.7644e+02 0.0000e+00
       11  1    3    3    0    0 +7.7176728203e-02 +6.7167251312e-02 -2.4813004129e-01 2.6839609822e-01 5.1100000000e-04 0.0000e+00 1.0000e+00
      255  1    3    3    0    0 +1.1433693476e+02 -2.0504821946e+01 -7.2218218664e+02 7.4206838840e+02 1.2500000000e+02 0.0000e+00 0.0000e+00
      -11  1    4    4    0    0 -1.3916128481e-01 +6.9029869312e-02 +3.2491245954e-01 3.6013796459e-01 5.1100000000e-04 0.0000e+00 -1.0000e+00
      255  1    4    4    0    0 -1.1427495021e+02 +2.0368624825e+01 +1.9720145903e+02 2.6074328480e+02 1.2500000000e+02 0.0000e+00 0.0000e+00
<mgrwt>
<rscale>  0 0.85520062E+03</rscale>
<asrwt>0</asrwt>
<pdfrwt beam="1">  1        2 0.11756493E+00 0.85520062E+03</pdfrwt>
<pdfrwt beam="2">  1       -2 0.36810482E-01 0.85520062E+03</pdfrwt>
<totfact> 0.25534802E+02</totfact>
</mgrwt>
</event>
<event>
 8      1 +1.6198320e-01 4.47707900e+02 7.81860800e-03 1.02840800e-01
        2 -1    0    0  501    0 +0.0000000000e+00 +0.0000000000e+00 +2.2097940229e+02 2.2097940230e+02 2.5500000000e-03 0.0000e+00 1.0000e+00
       -2 -1    0    0    0  501 -0.0000000000e+00 -0.0000000000e+00 -2.2676589110e+02 2.2676589112e+02 2.5500000000e-03 0.0000e+00 -1.0000e+00
  1000101  2    1    2    0    0 -9.2164304848e+01 +9.3531294880e+01 -1.3412239788e+02 2.2556862092e+02 1.2510005164e+02 4.1759e+01 0.0000e+00
 -1000101  2    1    2    0    0 +9.2164304848e+01 -9.3531294880e+01 +1.2833590906e+02 2.2217667251e+02 1.2509998418e+02 1.1932e+02 0.0000e+00
       11  1    3    3    0    0 -3.0723618277e-02 -4.8337265053e-02 -2.3319935219e-02 6.1842642348e-02 5.1100000000e-04 0.0000e+00 1.0000e+00
      255  1    3    3    0    0 -9.2133581230e+01 +9.3579632145e+01 -1.3409907794e+02 2.2550677827e+02 1.2500000000e+02 0.0000e+00 0.0000e+00
      -11  1    4    4    0    0 +1.2049418465e-01 -1.5922085860e-03 +2.9779380383e-02 1.2413080311e-01 5.1100000000e-04 0.0000e+00 -1.0000e+00
      255  1    4    4    0    0 +9.2043810664e+01 -9.3529702671e+01 +1.2830612968e+02 2.2205254170e+02 1.2500000000e+02 0.0000e+00 0.0000e+00
<mgrwt>
<rscale>  0 0.44770790E+03</rscale>
<asrwt>0</asrwt>
<pdfrwt beam="1">  1        2 0.33996831E-01 0.44770790E+03</pdfrwt>
<pdfrwt beam="2">  1       -2 0.34887060E-01 0.44770790E+03</pdfrwt>
<totfact> 0.11889121E+03</totfact>
</mgrwt>
</event>
<event>
 8      1 +1.6198320e-01 3.09254000e+02 7.81860800e-03 1.08070400e-01
        1 -1    0    0  501    0 +0.0000000000e+00 +0.0000000000e+00 +3.4539448157e+01 3.4539448525e+01 5.0400000000e-03 0.0000e+00 1.0000e+00
       -1 -1    0    0    0  501 -0.0000000000e+00 -0.0000000000e+00 -6.9223757349e+02 6.9223757351e+02 5.0400000000e-03 0.0000e+00 -1.0000e+00
  1000101  2    1    2    0    0 +7.4842775593e+01 -3.2933843868e+01 -2.3563274618e+02 2.7903237925e+02 1.2510075327e+02 1.0994e+01 0.0000e+00
 -1000101  2    1    2    0    0 -7.4842775593e+01 +3.2933843868e+01 -4.2206537916e+02 4.4774464278e+02 1.2509996694e+02 1.0352e+01 0.0000e+00
       11  1    3    3    0    0 +1.5896881432e-01 -5.2656793915e-03 -3.4268359355e-01 3.7779772064e-01 5.1100000000e-04 0.0000e+00 1.0000e+00
      255  1    3    3    0    0 +7.4683806779e+01 -3.2928578189e+01 -2.3529006259e+02 2.7865458153e+02 1.2500000000e+02 0.0000e+00 0.0000e+00
      -11  1    4    4    0    0 -1.1049096407e-01 +1.2439526772e-01 -4.6535755021e-01 4.9420678509e-01 5.1100000000e-04 0.0000e+00 -1.0000e+00
      255  1    4    4    0    0 -7.4732284629e+01 +3.2809448600e+01 -4.2160002160e+02 4.4725043600e+02 1.2500000000e+02 0.0000e+00 0.0000e+00
<mgrwt>
<rscale>  0 0.30925397E+03</rscale>
<asrwt>0</asrwt>
<pdfrwt beam="1">  1        1 0.53137618E-02 0.30925397E+03</pdfrwt>
<pdfrwt beam="2">  1       -1 0.10649808E+00 0.30925397E+03</pdfrwt>
<totfact> 0.13391407E+03</totfact>
</mgrwt>
</event>
<event>
 8      1 +1.6198320e-01 3.07916800e+02 7.81860800e-03 1.08134900e-01
       -2 -1    0    0    0  501 -0.0000000000e+00 +0.0000000000e+00 +1.0700725055e+03 1.0700725055e+03 2.5500000000e-03 0.0000e+00 -1.0000e+00
        2 -1    0    0  501    0 +0.0000000000e+00 -0.0000000000e+00 -2.2151010505e+01 2.2151010651e+01 2.5500000000e-03 0.0000e+00 1.0000e+00
  1000101  2    1    2    0    0 +3.6900017825e+00 +4.3553952017e+01 +2.4595432051e+02 2.7938162609e+02 1.2509996951e+02 5.1610e+01 0.0000e+00
 -1000101  2    1    2    0    0 -3.6900017825e+00 -4.3553952017e+01 +8.0196717445e+02 8.1284189002e+02 1.2510006569e+02 3.8642e+01 0.0000e+00
       11  1    3    3    0    0 +9.2504742219e-02 +7.2099212661e-02 +1.6456076812e-01 2.0207902248e-01 5.1100000000e-04 0.0000e+00 1.0000e+00
      255  1    3    3    0    0 +3.5974970403e+00 +4.3481852804e+01 +2.4578975974e+02 2.7917954707e+02 1.2500000000e+02 0.0000e+00 0.0000e+00
      -11  1    4    4    0    0 -5.9127498046e-03 +6.9714902612e-02 +3.3826595489e-01 3.4542617969e-01 5.1100000000e-04 0.0000e+00 -1.0000e+00
      255  1    4    4    0    0 -3.6840890327e+00 -4.3623666920e+01 +8.0162890849e+02 8.1249646384e+02 1.2500000000e+02 0.0000e+00 0.0000e+00
<mgrwt>
<rscale>  0 0.30791679E+03</rscale>
<asrwt>0</asrwt>
<pdfrwt beam="1">  1        2 0.34078484E-02 0.30791679E+03</pdfrwt>
<pdfrwt beam="2">  1       -2 0.16462651E+00 0.30791679E+03</pdfrwt>
<totfact> 0.65525571E+02</totfact>
</mgrwt>
</event>
<event>
 8      1 +1.6198320e-01 3.45350500e+02 7.81860800e-03 1.06454000e-01
        2 -1    0    0  501    0 +0.0000000000e+00 +0.0000000000e+00 +2.8500868770e+01 2.8500868884e+01 2.5500000000e-03 0.0000e+00 1.0000e+00
       -2 -1    0    0    0  501 -0.0000000000e+00 -0.0000000000e+00 -1.0461694341e+03 1.0461694341e+03 2.5500000000e-03 0.0000e+00 -1.0000e+00
  1000101  2    1    2    0    0 -4.1711931218e+00 +1.0873571456e+02 -3.5875986009e+02 3.9522084644e+02 1.2510006305e+02 1.7604e+02 0.0000e+00
 -1000101  2    1    2    0    0 +4.1711931218e+00 -1.0873571456e+02 -6.5890870522e+02 6.7944945653e+02 1.2510007071e+02 7.9623e+00 0.0000e+00
       11  1    3    3    0    0 +5.0820466746e-02 +1.0054618602e-01 -1.0457923231e-01 1.5371835387e-01 5.1100000000e-04 0.0000e+00 1.0000e+00
      255  1    3    3    0    0 -4.2220135885e+00 +1.0863516837e+02 -3.5865528086e+02 3.9506712808e+02 1.2500000000e+02 0.0000e+00 0.0000e+00
      -11  1    4    4    0    0 -4.4047832295e-03 -1.6097268100e-01 -1.0570440959e+00 1.0692399580e+00 5.1100000000e-04 0.0000e+00 -1.0000e+00
      255  1    4    4    0    0 +4.1755979050e+00 -1.0857474187e+02 -6.5785166113e+02 6.7838021657e+02 1.2500000000e+02 0.0000e+00 0.0000e+00
<mgrwt>
<rscale>  0 0.34535048E+03</rscale>
<asrwt>0</asrwt>
<pdfrwt beam="1">  1        2 0.43847499E-02 0.34535048E+03</pdfrwt>
<pdfrwt beam="2">  1       -2 0.16094911E+00 0.34535048E+03</pdfrwt>
<totfact> 0.49565185E+02</totfact>
</mgrwt>
</event>
<event>
 8      1 +1.6198320e-01 2.68288100e+02 7.81860800e-03 1.10226300e-01
       -1 -1    0    0    0  501 -0.0000000000e+00 +0.0000000000e+00 +5.9138715761e+01 5.9138715976e+01 5.0400000000e-03 0.0000e+00 -1.0000e+00
        1 -1    0    0  501    0 +0.0000000000e+00 -0.0000000000e+00 -3.0427828017e+02 3.0427828021e+02 5.0400000000e-03 0.0000e+00 1.0000e+00
  1000101  2    1    2    0    0 -3.1430711059e+01 +9.2088273469e+00 -1.7087913087e+02 2.1429499963e+02 1.2509986970e+02 4.3864e+01 0.0000e+00
 -1000101  2    1    2    0    0 +3.1430711059e+01 -9.2088273469e+00 -7.4260433534e+01 1.4912199656e+02 1.2510022290e+02 1.3511e+02 0.0000e+00
       11  1    3    3    0    0 +7.1352027201e-02 +3.7009720678e-02 -1.3392259670e-01 1.5619332329e-01 5.1100000000e-04 0.0000e+00 1.0000e+00
      255  1    3    3    0    0 -3.1502063086e+01 +9.1718176262e+00 -1.7074520828e+02 2.1413880631e+02 1.2500000000e+02 0.0000e+00 0.0000e+00
      -11  1    4    4    0    0 +1.1578818084e-01 +3.2339092188e-02 -4.1870894716e-02 1.2730338821e-01 5.1100000000e-04 0.0000e+00 -1.0000e+00
      255  1    4    4    0    0 +3.1314922878e+01 -9.2411664391e+00 -7.4218562639e+01 1.4899469317e+02 1.2500000000e+02 0.0000e+00 0.0000e+00
<mgrwt>
<rscale>  0 0.26828810E+03</rscale>
<asrwt>0</asrwt>
<pdfrwt beam="1">  1        1 0.46812042E-01 0.26828810E+03</pdfrwt>
<pdfrwt beam="2">  1       -1 0.90982641E-02 0.26828810E+03</pdfrwt>
<totfact> 0.60262215E+03</totfact>
</mgrwt>
</event>
<event>
 8      1 +1.6198320e-01 3.10201300e+02 7.81860800e-03 1.08024900e-01
       -2 -1    0    0    0  501 -0.0000000000e+00 +0.0000000000e+00 +9.4330117499e+01 9.4330117533e+01 2.5500000000e-03 0.0000e+00 -1.0000e+00
        2 -1    0    0  501    0 +0.0000000000e+00 -0.0000000000e+00 -2.5502150866e+02 2.5502150867e+02 2.5500000000e-03 0.0000e+00 1.0000e+00
  1000101  2    1    2    0    0 +6.2224979346e+01 -6.4197740499e+01 -5.7461137760e+01 1.6414962279e+02 1.2510003345e+02 1.7933e+01 0.0000e+00
 -1000101  2    1    2    0    0 -6.2224979346e+01 +6.4197740499e+01 -1.0323025340e+02 1.8520200342e+02 1.2509995568e+02 3.6703e+01 0.0000e+00
       11  1    3    3    0    0 +1.4565191654e-01 -2.7794313799e-02 -2.1579297920e-02 1.4984302417e-01 5.1100000000e-04 0.0000e+00 1.0000e+00
      255  1    3    3    0    0 +6.2079327429e+01 -6.4169946186e+01 -5.7439558462e+01 1.6399977977e+02 1.2500000000e+02 0.0000e+00 0.0000e+00
      -11  1    4    4    0    0 -1.0723333622e-01 -2.7758789458e-02 -4.8440368314e-02 1.2089776339e-01 5.1100000000e-04 0.0000e+00 -1.0000e+00
      255  1    4    4    0    0 -6.2117746009e+01 +6.4225499289e+01 -1.0318181303e+02 1.8508110565e+02 1.2500000000e+02 0.0000e+00 0.0000e+00
<mgrwt>
<rscale>  0 0.31020128E+03</rscale>
<asrwt>0</asrwt>
<pdfrwt beam="1">  1        2 0.39234078E-01 0.31020128E+03</pdfrwt>
<pdfrwt beam="2">  1       -2 0.14512326E-01 0.31020128E+03</pdfrwt>
<totfact> 0.47149754E+03</totfact>
</mgrwt>
</event>
<event>
 8      1 +1.6198320e-01 2.78511600e+02 7.81860800e-03 1.09650500e-01
       -1 -1    0    0    0  501 -0.0000000000e+00 +0.0000000000e+00 +5.8681222014e+02 5.8681222016e+02 5.0400000000e-03 0.0000e+00 1.0000e+00
        1 -1    0    0  501    0 +0.0000000000e+00 -0.0000000000e+00 -3.3046656970e+01 3.3046657354e+01 5.0400000000e-03 0.0000e+00 -1.0000e+00
  1000101  2    1    2    0    0 +3.1730874369e+01 +4.2554461218e+01 +2.0921331712e+02 2.4947534487e+02 1.2509998033e+02 2.4673e+00 0.0000e+00
 -1000101  2    1    2    0    0 -3.1730874369e+01 -4.2554461218e+01 +3.4455224605e+02 3.7038353264e+02 1.2509988185e+02 1.4166e+02 0.0000e+00
       11  1    3    3    0    0 +5.2201895434e-02 +1.3006132642e-01 +2.9079328403e-01 3.2280331732e-01 5.1100000000e-04 0.0000e+00 1.0000e+00
      255  1    3    3    0    0 +3.1678672474e+01 +4.2424399892e+01 +2.0892252384e+02 2.4915254156e+02 1.2500000000e+02 0.0000e+00 0.0000e+00
      -11  1    4    4    0    0 -1.2296073240e-01 -3.3604677966e-02 +2.4850700473e-01 2.7929305150e-01 5.1100000000e-04 0.0000e+00 -1.0000e+00
      255  1    4    4    0    0 -3.1607913637e+01 -4.2520856540e+01 +3.4430373904e+02 3.7010423959e+02 1.2500000000e+02 0.0000e+00 0.0000e+00
<mgrwt>
<rscale>  0 0.27851163E+03</rscale>
<asrwt>0</asrwt>
<pdfrwt beam="1">  1        1 0.50841011E-02 0.27851163E+03</pdfrwt>
<pdfrwt beam="2">  1       -1 0.90278803E-01 0.27851163E+03</pdfrwt>
<totfact> 0.20505825E+03</totfact>
</mgrwt>
</event>
<event>
 8      1 +1.6198320e-01 7.41095800e+02 7.81860800e-03 9.64942400e-02
        2 -1    0    0  501    0 +0.0000000000e+00 +0.0000000000e+00 +4.9259814360e+02 4.9259814361e+02 2.5500000000e-03 0.0000e+00 1.0000e+00
       -2 -1    0    0    0  501 -0.0000000000e+00 -0.0000000000e+00 -2.7873787481e+02 2.7873787483e+02 2.5500000000e-03 0.0000e+00 -1.0000e+00
  1000101  2    1    2    0    0 +1.7694170523e+02 +1.0973062102e+02 +3.9818163629e+02 4.6642029688e+02 1.2510036621e+02 2.7390e+02 0.0000e+00
 -1000101  2    1    2    0    0 -1.7694170523e+02 -1.0973062102e+02 -1.8432136750e+02 3.0491572155e+02 1.2510017783e+02 1.8684e+01 0.0000e+00
       11  1    3    3    0    0 +8.0989014779e-02 -1.9615289299e-02 +2.7919706231e-01 2.9136787883e-01 5.1100000000e-04 0.0000e+00 1.0000e+00
      255  1    3    3    0    0 +1.7686071622e+02 +1.0975023631e+02 +3.9790243922e+02 4.6612892900e+02 1.2500000000e+02 0.0000e+00 0.0000e+00
      -11  1    4    4    0    0 -1.4692852790e-01 -1.9188546154e-01 -2.3879751227e-01 3.3975363964e-01 5.1100000000e-04 0.0000e+00 -1.0000e+00
      255  1    4    4    0    0 -1.7679477670e+02 -1.0953873556e+02 -1.8408256999e+02 3.0457596791e+02 1.2500000000e+02 0.0000e+00 0.0000e+00
<mgrwt>
<rscale>  0 0.74109584E+03</rscale>
<asrwt>0</asrwt>
<pdfrwt beam="1">  1        2 0.75784329E-01 0.74109584E+03</pdfrwt>
<pdfrwt beam="2">  1       -2 0.42882751E-01 0.74109584E+03</pdfrwt>
<totfact> 0.32555339E+02</totfact>
</mgrwt>
</event>
<event>
 8      1 +1.6198320e-01 3.64658200e+02 7.81860800e-03 1.05675400e-01
        2 -1    0    0  501    0 +0.0000000000e+00 +0.0000000000e+00 +2.3367804979e+01 2.3367805118e+01 2.5500000000e-03 0.0000e+00 1.0000e+00
       -2 -1    0    0    0  501 -0.0000000000e+00 -0.0000000000e+00 -1.4226368254e+03 1.4226368254e+03 2.5500000000e-03 0.0000e+00 -1.0000e+00
  1000101  2    1    2    0    0 -1.0822008881e+02 -5.3698882510e+01 -9.1678119521e+02 9.3313069735e+02 1.2509988349e+02 2.5562e+01 0.0000e+00
 -1000101  2    1    2    0    0 +1.0822008881e+02 +5.3698882510e+01 -4.8248782526e+02 5.1287393321e+02 1.2510000896e+02 1.8380e+01 0.0000e+00
       11  1    3    3    0    0 -1.3361208658e-01 -1.3873469237e-01 -8.0123819058e-01 8.2406456283e-01 5.1100000000e-04 0.0000e+00 1.0000e+00
      255  1    3    3    0    0 -1.0808647673e+02 -5.3560147818e+01 -9.1597995701e+02 9.3230663279e+02 1.2500000000e+02 0.0000e+00 0.0000e+00
      -11  1    4    4    0    0 +6.7781015398e-02 +6.9311018839e-02 -6.5503025686e-01 6.6216552455e-01 5.1100000000e-04 0.0000e+00 -1.0000e+00
      255  1    4    4    0    0 +1.0815230780e+02 +5.3629571491e+01 -4.8183279500e+02 5.1221176769e+02 1.2500000000e+02 0.0000e+00 0.0000e+00
<mgrwt>
<rscale>  0 0.36465820E+03</rscale>
<asrwt>0</asrwt>
<pdfrwt beam="1">  1        2 0.35950481E-02 0.36465820E+03</pdfrwt>
<pdfrwt beam="2">  1       -2 0.21886714E+00 0.36465820E+03</pdfrwt>
<totfact> 0.26946610E+02</totfact>
</mgrwt>
</event>
<event>
 8      1 +1.6198320e-01 3.61037200e+02 7.81860800e-03 1.05817400e-01
       -1 -1    0    0    0  501 -0.0000000000e+00 +0.0000000000e+00 +1.7544630457e+02 1.7544630464e+02 5.0400000000e-03 0.0000e+00 1.0000e+00
        1 -1    0    0  501    0 +0.0000000000e+00 -0.0000000000e+00 -1.8573754676e+02 1.8573754682e+02 5.0400000000e-03 0.0000e+00 -1.0000e+00
  1000101  2    1    2    0    0 +1.0048502222e+02 -7.5684837438e+01 -3.8498145926e+01 1.8154232698e+02 1.2510025954e+02 1.6418e+02 0.0000e+00
 -1000101  2    1    2    0    0 -1.0048502222e+02 +7.5684837438e+01 +2.8206903739e+01 1.7964152448e+02 1.2510001435e+02 6.2529e+01 0.0000e+00
       11  1    3    3    0    0 +9.6425807276e-02 +2.3936089505e-02 +3.4435313889e-02 1.0515191227e-01 5.1100000000e-04 0.0000e+00 1.0000e+00
      255  1    3    3    0    0 +1.0038859642e+02 -7.5708773527e+01 -3.8532581240e+01 1.8143717507e+02 1.2500000000e+02 0.0000e+00 0.0000e+00
      -11  1    4    4    0    0 -1.6440584235e-01 +6.8295357019e-03 +5.6336196469e-04 1.6454939093e-01 5.1100000000e-04 0.0000e+00 -1.0000e+00
      255  1    4    4    0    0 -1.0032061638e+02 +7.5678007902e+01 +2.8206340377e+01 1.7947697509e+02 1.2500000000e+02 0.0000e+00 0.0000e+00
<mgrwt>
<rscale>  0 0.36103721E+03</rscale>
<asrwt>0</asrwt>
<pdfrwt beam="1">  1        1 0.28575007E-01 0.36103721E+03</pdfrwt>
<pdfrwt beam="2">  1       -1 0.26991739E-01 0.36103721E+03</pdfrwt>
<totfact> 0.19800526E+03</totfact>
</mgrwt>
</event>
<event>
 8      1 +1.6198320e-01 4.11141000e+02 7.81860800e-03 1.03998900e-01
       -2 -1    0    0    0  501 -0.0000000000e+00 +0.0000000000e+00 +8.4276914659e+01 8.4276914698e+01 2.5500000000e-03 0.0000e+00 -1.0000e+00
        2 -1    0    0  501    0 +0.0000000000e+00 -0.0000000000e+00 -5.0143293113e+02 5.0143293114e+02 2.5500000000e-03 0.0000e+00 1.0000e+00
  1000101  2    1    2    0    0 +1.1493736974e+02 -1.0760066564e+02 -1.4779106514e+02 2.4956108328e+02 1.2510009251e+02 6.1860e+00 0.0000e+00
 -1000101  2    1    2    0    0 -1.1493736974e+02 +1.0760066564e+02 -2.6936495134e+02 3.3614876255e+02 1.2510000539e+02 1.1557e+01 0.0000e+00
       11  1    3    3    0    0 +1.5846202531e-02 -1.2844053805e-02 -1.5110213937e-01 1.5247356983e-01 5.1100000000e-04 0.0000e+00 1.0000e+00
      255  1    3    3    0    0 +1.1492152353e+02 -1.0758782159e+02 -1.4763996300e+02 2.4940860971e+02 1.2500000000e+02 0.0000e+00 0.0000e+00
      -11  1    4    4    0    0 -2.9455441900e-02 +3.1099875502e-02 +1.4841864634e-02 4.5336159751e-02 5.1100000000e-04 0.0000e+00 -1.0000e+00
      255  1    4    4    0    0 -1.1490791430e+02 +1.0756956577e+02 -2.6937979320e+02 3.3610342639e+02 1.2500000000e+02 0.0000e+00 0.0000e+00
<mgrwt>
<rscale>  0 0.41114095E+03</rscale>
<asrwt>0</asrwt>
<pdfrwt beam="1">  1        2 0.77143526E-01 0.41114095E+03</pdfrwt>
<pdfrwt beam="2">  1       -2 0.12965679E-01 0.41114095E+03</pdfrwt>
<totfact> 0.27196310E+03</totfact>
</mgrwt>
</event>
<event>
 8      1 +1.6198320e-01 4.14675600e+02 7.81860800e-03 1.03881300e-01
       -2 -1    0    0    0  501 -0.0000000000e+00 +0.0000000000e+00 +3.1593308922e+02 3.1593308923e+02 2.5500000000e-03 0.0000e+00 -1.0000e+00
        2 -1    0    0  501    0 +0.0000000000e+00 -0.0000000000e+00 -1.3606980511e+02 1.3606980514e+02 2.5500000000e-03 0.0000e+00 1.0000e+00
  1000101  2    1    2    0    0 +2.3001349869e+01 -3.4586026793e+01 -8.4517431639e+01 1.5658382898e+02 1.2510013550e+02 6.6700e+01 0.0000e+00
 -1000101  2    1    2    0    0 -2.3001349869e+01 +3.4586026793e+01 +2.6438071575e+02 2.9541906539e+02 1.2509998399e+02 1.0871e+02 0.0000e+00
       11  1    3    3    0    0 +1.2005507713e-01 -3.7664204820e-02 -7.9799208006e-02 1.4899660597e-01 5.1100000000e-04 0.0000e+00 1.0000e+00
      255  1    3    3    0    0 +2.2881294792e+01 -3.4548362588e+01 -8.4437632431e+01 1.5643483237e+02 1.2500000000e+02 0.0000e+00 0.0000e+00
      -11  1    4    4    0    0 +2.0209404336e-02 -6.9945947705e-02 +1.5733984323e-01 1.7336938315e-01 5.1100000000e-04 0.0000e+00 -1.0000e+00
      255  1    4    4    0    0 -2.3021559273e+01 +3.4655972741e+01 +2.6422337591e+02 2.9524569601e+02 1.2500000000e+02 0.0000e+00 0.0000e+00
<mgrwt>
<rscale>  0 0.41467555E+03</rscale>
<asrwt>0</asrwt>
<pdfrwt beam="1">  1        2 0.20933817E-01 0.41467555E+03</pdfrwt>
<pdfrwt beam="2">  1       -2 0.48605090E-01 0.41467555E+03</pdfrwt>
<totfact> 0.10787178E+03</totfact>
</mgrwt>
</event>
<event>
 8      1 +1.6198320e-01 3.00689400e+02 7.81860800e-03 1.08489700e-01
       -2 -1    0    0    0  501 -0.0000000000e+00 +0.0000000000e+00 +1.0930464155e+02 1.0930464158e+02 2.5500000000e-03 0.0000e+00 -1.0000e+00
        2 -1    0    0  501    0 +0.0000000000e+00 -0.0000000000e+00 -2.0679379762e+02 2.0679379764e+02 2.5500000000e-03 0.0000e+00 1.0000e+00
  1000101  2    1    2    0    0 -7.4817930982e+01 +2.0786795410e+00 -8.7390820255e+01 1.6996828093e+02 1.2510002939e+02 3.1795e+01 0.0000e+00
 -1000101  2    1    2    0    0 +7.4817930982e+01 -2.0786795410e+00 -1.0098335819e+01 1.4613015828e+02 1.2509997230e+02 3.0958e+02 0.0000e+00
       11  1    3    3    0    0 -2.2941387817e-02 +9.5823255182e-02 -4.8791838165e-02 1.0995138972e-01 5.1100000000e-04 0.0000e+00 1.0000e+00
      255  1    3    3    0    0 -7.4794989595e+01 +1.9828562858e+00 -8.7342028416e+01 1.6985832954e+02 1.2500000000e+02 0.0000e+00 0.0000e+00
      -11  1    4    4    0    0 -5.6049964662e-02 -9.9895130144e-03 -8.7040190343e-03 5.7596961535e-02 5.1100000000e-04 0.0000e+00 -1.0000e+00
      255  1    4    4    0    0 +7.4873980947e+01 -2.0686900280e+00 -1.0089631800e+01 1.4607256132e+02 1.2500000000e+02 0.0000e+00 0.0000e+00
<mgrwt>
<rscale>  0 0.30068935E+03</rscale>
<asrwt>0</asrwt>
<pdfrwt beam="1">  1        2 0.31814430E-01 0.30068935E+03</pdfrwt>
<pdfrwt beam="2">  1       -2 0.16816099E-01 0.30068935E+03</pdfrwt>
<totfact> 0.46324485E+03</totfact>
</mgrwt>
</event>
<event>
 8      1 +1.6198320e-01 2.69652300e+02 7.81860800e-03 1.10147900e-01
        2 -1    0    0  501    0 +0.0000000000e+00 +0.0000000000e+00 +1.9106497246e+03 1.9106497246e+03 2.5500000000e-03 0.0000e+00 1.0000e+00
       -2 -1    0    0    0  501 -0.0000000000e+00 -0.0000000000e+00 -9.5140909055e+00 9.5140912472e+00 2.5500000000e-03 0.0000e+00 -1.0000e+00
  1000101  2    1    2    0    0 -1.2721280407e+00 -3.1024649699e+01 +1.2321883891e+03 1.2389117778e+03 1.2510003825e+02 7.3766e+01 0.0000e+00
 -1000101  2    1    2    0    0 +1.2721280407e+00 +3.1024649699e+01 +6.6894724457e+02 6.8125203809e+02 1.2509906550e+02 9.7114e+01 0.0000e+00
       11  1    3    3    0    0 -3.6191373953e-02 +7.1484961193e-02 +8.0080776414e-01 8.0480634407e-01 5.1100000000e-04 0.0000e+00 1.0000e+00
      255  1    3    3    0    0 -1.2359366667e+00 -3.1096134660e+01 +1.2313875814e+03 1.2381069714e+03 1.2500000000e+02 0.0000e+00 0.0000e+00
      -11  1    4    4    0    0 +9.8505354785e-03 -1.3995442208e-02 +9.6408362664e-01 9.6423565881e-01 5.1100000000e-04 0.0000e+00 -1.0000e+00
      255  1    4    4    0    0 +1.2622775052e+00 +3.1038645141e+01 +6.6798316094e+02 6.8028780243e+02 1.2500000000e+02 0.0000e+00 0.0000e+00
<mgrwt>
<rscale>  0 0.26965234E+03</rscale>
<asrwt>0</asrwt>
<pdfrwt beam="1">  1        2 0.29394597E+00 0.26965234E+03</pdfrwt>
<pdfrwt beam="2">  1       -2 0.14637070E-02 0.26965234E+03</pdfrwt>
<totfact> 0.10120068E+04</totfact>
</mgrwt>
</event>
<event>
 8      1 +1.6198320e-01 2.92983400e+02 7.81860800e-03 1.08880200e-01
        2 -1    0    0  501    0 +0.0000000000e+00 +0.0000000000e+00 +6.3104271626e+02 6.3104271626e+02 2.5500000000e-03 0.0000e+00 1.0000e+00
       -2 -1    0    0    0  501 -0.0000000000e+00 -0.0000000000e+00 -3.4006917743e+01 3.4006917838e+01 2.5500000000e-03 0.0000e+00 -1.0000e+00
  1000101  2    1    2    0    0 +4.6734502694e+01 -5.7827899991e+01 +2.6042147241e+02 2.9832455514e+02 1.2510002858e+02 2.2006e+01 0.0000e+00
 -1000101  2    1    2    0    0 -4.6734502694e+01 +5.7827899991e+01 +3.3661432611e+02 3.6672507896e+02 1.2509955730e+02 2.3618e+02 0.0000e+00
       11  1    3    3    0    0 +6.5565310143e-02 +1.8011116773e-02 +3.2858401761e-01 3.3554571667e-01 5.1100000000e-04 0.0000e+00 1.0000e+00
      255  1    3    3    0    0 +4.6668937384e+01 -5.7845911108e+01 +2.6009288839e+02 2.9798900943e+02 1.2500000000e+02 0.0000e+00 0.0000e+00
      -11  1    4    4    0    0 +1.6936713098e-02 +5.2291222468e-02 +2.0174397089e-02 5.8553322852e-02 5.1100000000e-04 0.0000e+00 -1.0000e+00
      255  1    4    4    0    0 -4.6751439407e+01 +5.7775608769e+01 +3.3659415171e+02 3.6666652564e+02 1.2500000000e+02 0.0000e+00 0.0000e+00
<mgrwt>
<rscale>  0 0.29298340E+03</rscale>
<asrwt>0</asrwt>
<pdfrwt beam="1">  1        2 0.97083493E-01 0.29298340E+03</pdfrwt>
<pdfrwt beam="2">  1       -2 0.52318336E-02 0.29298340E+03</pdfrwt>
<totfact> 0.86711227E+03</totfact>
</mgrwt>
</event>
<event>
 8      1 +1.6198320e-01 2.88087500e+02 7.81860800e-03 1.09135200e-01
       -1 -1    0    0    0  501 -0.0000000000e+00 +0.0000000000e+00 +1.6639569585e+01 1.6639570348e+01 5.0400000000e-03 0.0000e+00 -1.0000e+00
        1 -1    0    0  501    0 +0.0000000000e+00 -0.0000000000e+00 -1.2469435096e+03 1.2469435096e+03 5.0400000000e-03 0.0000e+00 1.0000e+00
  1000101  2    1    2    0    0 +4.2491375769e+01 -3.2656561169e+01 -8.2211942618e+02 8.3330806860e+02 1.2510003312e+02 3.8818e+00 0.0000e+00
 -1000101  2    1    2    0    0 -4.2491375769e+01 +3.2656561169e+01 -4.0818451387e+02 4.3027501139e+02 1.2510004023e+02 9.1828e+01 0.0000e+00
       11  1    3    3    0    0 +1.2473396915e-01 -6.3218853023e-02 -1.1396317152e+00 1.1481793822e+00 5.1100000000e-04 0.0000e+00 1.0000e+00
      255  1    3    3    0    0 +4.2366641800e+01 -3.2593342316e+01 -8.2097979446e+02 8.3215988921e+02 1.2500000000e+02 0.0000e+00 0.0000e+00
      -11  1    4    4    0    0 -7.7238445272e-03 -6.6681937371e-02 -3.6256010648e-01 3.6872243013e-01 5.1100000000e-04 0.0000e+00 -1.0000e+00
      255  1    4    4    0    0 -4.2483651925e+01 +3.2723243107e+01 -4.0782195376e+02 4.2990628896e+02 1.2500000000e+02 0.0000e+00 0.0000e+00
<mgrwt>
<rscale>  0 0.28808751E+03</rscale>
<asrwt>0</asrwt>
<pdfrwt beam="1">  1        1 0.19183739E+00 0.28808751E+03</pdfrwt>
<pdfrwt beam="2">  1       -1 0.25599348E-02 0.28808751E+03</pdfrwt>
<totfact> 0.50682649E+03</totfact>
</mgrwt>
</event>
<event>
 8      1 +1.6198320e-01 2.66382300e+02 7.81860800e-03 1.10336800e-01
        2 -1    0    0  501    0 +0.0000000000e+00 +0.0000000000e+00 +2.3275679929e+03 2.3275679929e+03 2.5500000000e-03 0.0000e+00 1.0000e+00
       -2 -1    0    0    0  501 -0.0000000000e+00 -0.0000000000e+00 -7.6216380996e+00 7.6216385261e+00 2.5500000000e-03 0.0000e+00 -1.0000e+00
  1000101  2    1    2    0    0 +2.3574244661e+01 -2.2224533167e+01 +8.7723890487e+02 8.8670612905e+02 1.2509991282e+02 1.1337e+02 0.0000e+00
 -1000101  2    1    2    0    0 -2.3574244661e+01 +2.2224533167e+01 +1.4427074499e+03 1.4484835024e+03 1.2509994283e+02 2.3142e+02 0.0000e+00
       11  1    3    3    0    0 -2.2738919095e-02 -8.8121339647e-02 +3.3600490452e-01 3.4811203071e-01 5.1100000000e-04 0.0000e+00 1.0000e+00
      255  1    3    3    0    0 +2.3596983580e+01 -2.2136411827e+01 +8.7690289996e+02 8.8635801702e+02 1.2500000000e+02 0.0000e+00 0.0000e+00
      -11  1    4    4    0    0 -6.9827164729e-02 -5.2289120278e-02 +5.6315771559e-01 5.6987442370e-01 5.1100000000e-04 0.0000e+00 -1.0000e+00
      255  1    4    4    0    0 -2.3504417496e+01 +2.2276822287e+01 +1.4421442922e+03 1.4479136280e+03 1.2500000000e+02 0.0000e+00 0.0000e+00
<mgrwt>
<rscale>  0 0.26638229E+03</rscale>
<asrwt>0</asrwt>
<pdfrwt beam="1">  1        2 0.35808724E+00 0.26638229E+03</pdfrwt>
<pdfrwt beam="2">  1       -2 0.11725602E-02 0.26638229E+03</pdfrwt>
<totfact> 0.84120623E+03</totfact>
</mgrwt>
</event>
<event>
 8      1 +1.6198320e-01 2.88092700e+02 7.81860800e-03 1.09134900e-01
       -4 -1    0    0    0  501 -0.0000000000e+00 +0.0000000000e+00 +4.0070990575e+01 4.0091111055e+01 1.2700000000e+00 0.0000e+00 -1.0000e+00
        4 -1    0    0  501    0 +0.0000000000e+00 -0.0000000000e+00 -5.1766384304e+02 5.1766540090e+02 1.2700000000e+00 0.0000e+00 1.0000e+00
  1000101  2    1    2    0    0 -6.4163860246e+01 -9.3830378192e+00 -1.8089953153e+02 2.2930257114e+02 1.2509990512e+02 4.2130e+02 0.0000e+00
 -1000101  2    1    2    0    0 +6.4163860246e+01 +9.3830378192e+00 -2.9669332094e+02 3.2845394082e+02 1.2510004873e+02 4.8474e+01 0.0000e+00
       11  1    3    3    0    0 -1.0930077044e-01 -3.4621287581e-02 -3.1350307241e-01 3.3381091879e-01 5.1100000000e-04 0.0000e+00 1.0000e+00
      255  1    3    3    0    0 -6.4054559475e+01 -9.3484165316e+00 -1.8058602846e+02 2.2896876022e+02 1.2500000000e+02 0.0000e+00 0.0000e+00
      -11  1    4    4    0    0 +1.2785969205e-01 +2.8606580974e-03 -1.4005825059e-01 1.8966512303e-01 5.1100000000e-04 0.0000e+00 -1.0000e+00
      255  1    4    4    0    0 +6.4036000554e+01 +9.3801771611e+00 -2.9655326269e+02 3.2826427570e+02 1.2500000000e+02 0.0000e+00 0.0000e+00
<mgrwt>
<rscale>  0 0.28809268E+03</rscale>
<asrwt>0</asrwt>
<pdfrwt beam="1">  1        4 0.79642254E-01 0.28809268E+03</pdfrwt>
<pdfrwt beam="2">  1       -4 0.61664357E-02 0.28809268E+03</pdfrwt>
<totfact> 0.45873826E+02</totfact>
</mgrwt>
</event>
<event>
 8      1 +1.6198320e-01 3.02607900e+02 7.81860800e-03 1.08394400e-01
        2 -1    0    0  501    0 +0.0000000000e+00 +0.0000000000e+00 +1.3442171831e+02 1.3442171833e+02 2.5500000000e-03 0.0000e+00 1.0000e+00
       -2 -1    0    0    0  501 -0.0000000000e+00 -0.0000000000e+00 -1.7030650180e+02 1.7030650182e+02 2.5500000000e-03 0.0000e+00 -1.0000e+00
  1000101  2    1    2    0    0 +6.6215734755e+01 +4.5584496743e+01 -4.6074277981e+01 1.5567688990e+02 1.2509990042e+02 3.5697e+02 0.0000e+00
 -1000101  2    1    2    0    0 -6.6215734755e+01 -4.5584496743e+01 +1.0189494491e+01 1.4905133025e+02 1.2509997354e+02 2.4655e+01 0.0000e+00
       11  1    3    3    0    0 +3.8432456056e-02 -1.6202434714e-02 +6.0909137786e-02 7.3822467830e-02 5.1100000000e-04 0.0000e+00 1.0000e+00
      255  1    3    3    0    0 +6.6177302299e+01 +4.5600699178e+01 -4.6135187118e+01 1.5560306744e+02 1.2500000000e+02 0.0000e+00 0.0000e+00
      -11  1    4    4    0    0 -5.3232740279e-02 +3.8407893348e-02 +7.6794016751e-02 1.0102709062e-01 5.1100000000e-04 0.0000e+00 -1.0000e+00
      255  1    4    4    0    0 -6.6162502015e+01 -4.5622904636e+01 +1.0112700474e+01 1.4895030316e+02 1.2500000000e+02 0.0000e+00 0.0000e+00
<mgrwt>
<rscale>  0 0.30260795E+03</rscale>
<asrwt>0</asrwt>
<pdfrwt beam="1">  1        2 0.20680264E-01 0.30260795E+03</pdfrwt>
<pdfrwt beam="2">  1       -2 0.26201000E-01 0.30260795E+03</pdfrwt>
<totfact> 0.34880417E+03</totfact>
</mgrwt>
</event>
<event>
 8      1 +1.6198320e-01 3.85377600e+02 7.81860800e-03 1.04896400e-01
        1 -1    0    0  501    0 +0.0000000000e+00 +0.0000000000e+00 +8.0576922770e+01 8.0576922927e+01 5.0400000000e-03 0.0000e+00 1.0000e+00
       -1 -1    0    0    0  501 -0.0000000000e+00 -0.0000000000e+00 -4.6078927188e+02 4.6078927190e+02 5.0400000000e-03 0.0000e+00 -1.0000e+00
  1000101  2    1    2    0    0 +1.2862440267e+02 -6.2440168738e+01 -2.3532026889e+02 3.0243781682e+02 1.2509992986e+02 1.1016e+01 0.0000e+00
 -1000101  2    1    2    0    0 -1.2862440267e+02 +6.2440168738e+01 -1.4489208021e+02 2.3892837802e+02 1.2510013301e+02 1.4173e+02 0.0000e+00
       11  1    3    3    0    0 +2.1680427583e-01 -1.6643292464e-02 -2.4459742915e-01 3.2727550576e-01 5.1100000000e-04 0.0000e+00 1.0000e+00
      255  1    3    3    0    0 +1.2840759840e+02 -6.2423525446e+01 -2.3507567147e+02 3.0211054131e+02 1.2500000000e+02 0.0000e+00 0.0000e+00
      -11  1    4    4    0    0 -8.0038649252e-02 +1.4647403065e-01 -1.5479325570e-01 2.2764454784e-01 5.1100000000e-04 0.0000e+00 -1.0000e+00
      255  1    4    4    0    0 -1.2854436402e+02 +6.2293694708e+01 -1.4473728696e+02 2.3870073347e+02 1.2500000000e+02 0.0000e+00 0.0000e+00
<mgrwt>
<rscale>  0 0.38537764E+03</rscale>
<asrwt>0</asrwt>
<pdfrwt beam="1">  1        1 0.12396450E-01 0.38537764E+03</pdfrwt>
<pdfrwt beam="2">  1       -1 0.70890656E-01 0.38537764E+03</pdfrwt>
<totfact> 0.10075791E+03</totfact>
</mgrwt>
</event>
<event>
 8      1 +1.6198320e-01 3.04794500e+02 7.81860800e-03 1.08286800e-01
        2 -1    0    0  501    0 +0.0000000000e+00 +0.0000000000e+00 +1.1803723689e+03 1.1803723689e+03 2.5500000000e-03 0.0000e+00 1.0000e+00
       -2 -1    0    0    0  501 -0.0000000000e+00 -0.0000000000e+00 -1.9675932618e+01 1.9675932784e+01 2.5500000000e-03 0.0000e+00 -1.0000e+00
  1000101  2    1    2    0    0 -2.7152961177e+01 +1.9879399838e+01 +8.9637021374e+02 9.0568318847e+02 1.2509997586e+02 3.5698e+01 0.0000e+00
 -1000101  2    1    2    0    0 +2.7152961177e+01 -1.9879399838e+01 +2.6432622258e+02 2.9436511325e+02 1.2509993653e+02 1.2941e+01 0.0000e+00
       11  1    3    3    0    0 -6.8495343700e-02 +1.1154630955e-04 +1.3767630103e+00 1.3784659126e+00 5.1100000000e-04 0.0000e+00 1.0000e+00
      255  1    3    3    0    0 -2.7084465834e+01 +1.9879288292e+01 +8.9499345072e+02 9.0430472255e+02 1.2500000000e+02 0.0000e+00 0.0000e+00
      -11  1    4    4    0    0 -2.4925519047e-02 -7.2794898197e-02 +3.6253640309e-01 3.7061203892e-01 5.1100000000e-04 0.0000e+00 -1.0000e+00
      255  1    4    4    0    0 +2.7177886696e+01 -1.9806604940e+01 +2.6396368618e+02 2.9399450122e+02 1.2500000000e+02 0.0000e+00 0.0000e+00
<mgrwt>
<rscale>  0 0.30479454E+03</rscale>
<asrwt>0</asrwt>
<pdfrwt beam="1">  1        2 0.18159583E+00 0.30479454E+03</pdfrwt>
<pdfrwt beam="2">  1       -2 0.30270651E-02 0.30479454E+03</pdfrwt>
<totfact> 0.85845441E+03</totfact>
</mgrwt>
</event>
<event>
 8      1 +1.6198320e-01 4.37956400e+02 7.81860800e-03 1.03137600e-01
        2 -1    0    0  501    0 +0.0000000000e+00 +0.0000000000e+00 +9.6345116713e+02 9.6345116713e+02 2.5500000000e-03 0.0000e+00 1.0000e+00
       -2 -1    0    0    0  501 -0.0000000000e+00 -0.0000000000e+00 -4.9770504250e+01 4.9770504316e+01 2.5500000000e-03 0.0000e+00 -1.0000e+00
  1000101  2    1    2    0    0 -9.0290122970e+00 -1.6827724599e+02 +6.0136923539e+02 6.3694091337e+02 1.2510002107e+02 2.9478e+01 0.0000e+00
 -1000101  2    1    2    0    0 +9.0290122970e+00 +1.6827724599e+02 +3.1231142749e+02 3.7628075807e+02 1.2510006625e+02 3.6707e+01 0.0000e+00
       11  1    3    3    0    0 +3.5339036870e-02 -1.2557259888e-01 +7.2947253276e-01 7.4104504741e-01 5.1100000000e-04 0.0000e+00 1.0000e+00
      255  1    3    3    0    0 -9.0643513339e+00 -1.6815167340e+02 +6.0063976286e+02 6.3619986833e+02 1.2500000000e+02 0.0000e+00 0.0000e+00
      -11  1    4    4    0    0 +6.9379824494e-02 +2.6935656773e-01 +4.4207626170e-01 5.2230087392e-01 5.1100000000e-04 0.0000e+00 -1.0000e+00
      255  1    4    4    0    0 +8.9596324726e+00 +1.6800788943e+02 +3.1186935122e+02 3.7575845720e+02 1.2500000000e+02 0.0000e+00 0.0000e+00
<mgrwt>
<rscale>  0 0.43795639E+03</rscale>
<asrwt>0</asrwt>
<pdfrwt beam="1">  1        2 0.14822325E+00 0.43795639E+03</pdfrwt>
<pdfrwt beam="2">  1       -2 0.76570009E-02 0.43795639E+03</pdfrwt>
<totfact> 0.28117713E+03</totfact>
</mgrwt>
</event>
<event>
 8      1 +1.6198320e-01 3.15149800e+02 7.81860800e-03 1.07790300e-01
        2 -1    0    0  501    0 +0.0000000000e+00 +0.0000000000e+00 +1.7052589426e+02 1.7052589428e+02 2.5500000000e-03 0.0000e+00 1.0000e+00
       -2 -1    0    0    0  501 -0.0000000000e+00 -0.0000000000e+00 -1.4560754230e+02 1.4560754232e+02 2.5500000000e-03 0.0000e+00 -1.0000e+00
  1000101  2    1    2    0    0 +2.3752218362e+01 +6.9418141242e+01 -4.9351269894e+01 1.5319470479e+02 1.2510005406e+02 6.8926e+00 0.0000e+00
 -1000101  2    1    2    0    0 -2.3752218362e+01 -6.9418141242e+01 +7.4269621856e+01 1.6293873181e+02 1.2509998954e+02 1.0188e+02 0.0000e+00
       11  1    3    3    0    0 +1.0046965476e-01 +6.8730996654e-02 +1.7012439366e-02 1.2291373253e-01 5.1100000000e-04 0.0000e+00 1.0000e+00
      255  1    3    3    0    0 +2.3651748707e+01 +6.9349410245e+01 -4.9368282334e+01 1.5307179106e+02 1.2500000000e+02 0.0000e+00 0.0000e+00
      -11  1    4    4    0    0 -9.7073949642e-02 -1.0056982611e-01 +1.5021015148e-02 1.4058283551e-01 5.1100000000e-04 0.0000e+00 -1.0000e+00
      255  1    4    4    0    0 -2.3655144412e+01 -6.9317571416e+01 +7.4254600841e+01 1.6279814898e+02 1.2500000000e+02 0.0000e+00 0.0000e+00
<mgrwt>
<rscale>  0 0.31514985E+03</rscale>
<asrwt>0</asrwt>
<pdfrwt beam="1">  1        2 0.26234753E-01 0.31514985E+03</pdfrwt>
<pdfrwt beam="2">  1       -2 0.22401160E-01 0.31514985E+03</pdfrwt>
<totfact> 0.35166049E+03</totfact>
</mgrwt>
</event>
<event>
 8      1 +1.6198320e-01 3.15056600e+02 7.81860800e-03 1.07794700e-01
       -2 -1    0    0    0  501 -0.0000000000e+00 +0.0000000000e+00 +4.6553786972e+01 4.6553787042e+01 2.5500000000e-03 0.0000e+00 -1.0000e+00
        2 -1    0    0  501    0 +0.0000000000e+00 -0.0000000000e+00 -5.3304277706e+02 5.3304277707e+02 2.5500000000e-03 0.0000e+00 1.0000e+00
  1000101  2    1    2    0    0 -3.3879004636e+01 +3.2867209480e+01 -9.0020660284e+01 1.6118866375e+02 1.2510006246e+02 1.1801e+01 0.0000e+00
 -1000101  2    1    2    0    0 +3.3879004636e+01 -3.2867209480e+01 -3.9646832981e+02 4.1840790037e+02 1.2509993659e+02 1.2125e+01 0.0000e+00
       11  1    3    3    0    0 -7.8678904127e-02 -4.9020661560e-02 -1.8578155517e-02 9.4545249475e-02 5.1100000000e-04 0.0000e+00 1.0000e+00
      255  1    3    3    0    0 -3.3800325732e+01 +3.2916230142e+01 -9.0002082129e+01 1.6109411850e+02 1.2500000000e+02 0.0000e+00 0.0000e+00
      -11  1    4    4    0    0 +7.0292399476e-02 -8.9046028328e-03 -5.9124991633e-02 9.2284013420e-02 5.1100000000e-04 0.0000e+00 -1.0000e+00
      255  1    4    4    0    0 +3.3808712237e+01 -3.2858304877e+01 -3.9640920481e+02 4.1831561635e+02 1.2500000000e+02 0.0000e+00 0.0000e+00
<mgrwt>
<rscale>  0 0.31505657E+03</rscale>
<asrwt>0</asrwt>
<pdfrwt beam="1">  1        2 0.82006577E-01 0.31505657E+03</pdfrwt>
<pdfrwt beam="2">  1       -2 0.71621214E-02 0.31505657E+03</pdfrwt>
<totfact> 0.65123444E+03</totfact>
</mgrwt>
</event>
<event>
 8      1 +1.6198320e-01 3.52839800e+02 7.81860800e-03 1.06145500e-01
        1 -1    0    0  501    0 +0.0000000000e+00 +0.0000000000e+00 +1.6442304573e+02 1.6442304580e+02 5.0400000000e-03 0.0000e+00 1.0000e+00
       -1 -1    0    0    0  501 -0.0000000000e+00 -0.0000000000e+00 -1.8929208852e+02 1.8929208858e+02 5.0400000000e-03 0.0000e+00 -1.0000e+00
  1000101  2    1    2    0    0 +6.3648327929e+01 +1.0665030662e+02 -1.9421656838e+01 1.7734883954e+02 1.2510001032e+02 3.7564e+01 0.0000e+00
 -1000101  2    1    2    0    0 -6.3648327929e+01 -1.0665030662e+02 -5.4473859527e+00 1.7636629485e+02 1.2509995361e+02 3.1537e+01 0.0000e+00
       11  1    3    3    0    0 +9.4224532646e-02 -9.1949967733e-03 +1.9526480698e-02 9.6666204478e-02 5.1100000000e-04 0.0000e+00 1.0000e+00
      255  1    3    3    0    0 +6.3554103397e+01 +1.0665950162e+02 -1.9441183318e+01 1.7725217334e+02 1.2500000000e+02 0.0000e+00 0.0000e+00
      -11  1    4    4    0    0 -1.0839982331e-01 -1.3896772951e-01 -8.7395578869e-02 1.9672518869e-01 5.1100000000e-04 0.0000e+00 -1.0000e+00
      255  1    4    4    0    0 -6.3539928106e+01 -1.0651133889e+02 -5.3599903738e+00 1.7616956966e+02 1.2500000000e+02 0.0000e+00 0.0000e+00
<mgrwt>
<rscale>  0 0.35283980E+03</rscale>
<asrwt>0</asrwt>
<pdfrwt beam="1">  1        1 0.25295853E-01 0.35283980E+03</pdfrwt>
<pdfrwt beam="2">  1       -1 0.29121860E-01 0.35283980E+03</pdfrwt>
<totfact> 0.20333862E+03</totfact>
</mgrwt>
</event>
<event>
 8      1 +1.6198320e-01 3.23654300e+02 7.81860800e-03 1.07398000e-01
       -1 -1    0    0    0  501 -0.0000000000e+00 +0.0000000000e+00 +3.0324981106e+01 3.0324981525e+01 5.0400000000e-03 0.0000e+00 -1.0000e+00
        1 -1    0    0  501    0 +0.0000000000e+00 -0.0000000000e+00 -8.6357929678e+02 8.6357929680e+02 5.0400000000e-03 0.0000e+00 1.0000e+00
  1000101  2    1    2    0    0 +7.5741171858e+00 -2.2044629281e+00 -6.9931240190e+02 7.1045762951e+02 1.2509988395e+02 7.5904e+01 0.0000e+00
 -1000101  2    1    2    0    0 -7.5741171858e+00 +2.2044629281e+00 -1.3394191378e+02 1.8344664881e+02 1.2509999915e+02 8.6200e+01 0.0000e+00
       11  1    3    3    0    0 +8.4139497078e-02 -6.0108748834e-02 -4.6367480072e-01 4.7506536245e-01 5.1100000000e-04 0.0000e+00 1.0000e+00
      255  1    3    3    0    0 +7.4899776887e+00 -2.1443541792e+00 -6.9884872710e+02 7.0998256415e+02 1.2500000000e+02 0.0000e+00 0.0000e+00
      -11  1    4    4    0    0 -9.5973179737e-02 -2.7433916188e-02 -6.4239801306e-02 1.1870334527e-01 5.1100000000e-04 0.0000e+00 -1.0000e+00
      255  1    4    4    0    0 -7.4781440060e+00 +2.2318968443e+00 -1.3387767397e+02 1.8332794547e+02 1.2500000000e+02 0.0000e+00 0.0000e+00
<mgrwt>
<rscale>  0 0.32365430E+03</rscale>
<asrwt>0</asrwt>
<pdfrwt beam="1">  1        1 0.13285833E+00 0.32365430E+03</pdfrwt>
<pdfrwt beam="2">  1       -1 0.46653824E-02 0.32365430E+03</pdfrwt>
<totfact> 0.39977961E+03</totfact>
</mgrwt>
</event>
<event>
 8      1 +1.6198320e-01 2.56205100e+02 7.81860800e-03 1.10944500e-01
        4 -1    0    0  501    0 +0.0000000000e+00 +0.0000000000e+00 +2.9824200989e+01 2.9851228863e+01 1.2700000000e+00 0.0000e+00 1.0000e+00
       -4 -1    0    0    0  501 -0.0000000000e+00 -0.0000000000e+00 -5.4995614414e+02 5.4995761053e+02 1.2700000000e+00 0.0000e+00 -1.0000e+00
  1000101  2    1    2    0    0 -2.2045906608e+01 -1.6497794620e+01 -2.5684098778e+02 2.8701138713e+02 1.2510013636e+02 7.7232e+01 0.0000e+00
 -1000101  2    1    2    0    0 +2.2045906608e+01 +1.6497794620e+01 -2.6329095538e+02 2.9279745226e+02 1.2510004653e+02 4.6094e+01 0.0000e+00
       11  1    3    3    0    0 -9.5938810565e-02 -3.3220409587e-02 -1.0057519115e-01 1.4291074551e-01 5.1100000000e-04 0.0000e+00 1.0000e+00
      255  1    3    3    0    0 -2.1949967797e+01 -1.6464574211e+01 -2.5674041258e+02 2.8686847639e+02 1.2500000000e+02 0.0000e+00 0.0000e+00
      -11  1    4    4    0    0 +7.7470318858e-02 -1.1173271680e-02 -4.0043570539e-01 4.0801410218e-01 5.1100000000e-04 0.0000e+00 -1.0000e+00
      255  1    4    4    0    0 +2.1968436289e+01 +1.6508967892e+01 -2.6289051967e+02 2.9238943816e+02 1.2500000000e+02 0.0000e+00 0.0000e+00
<mgrwt>
<rscale>  0 0.25620510E+03</rscale>
<asrwt>0</asrwt>
<pdfrwt beam="1">  1        4 0.45905309E-02 0.25620510E+03</pdfrwt>
<pdfrwt beam="2">  1       -4 0.84610822E-01 0.25620510E+03</pdfrwt>
<totfact> 0.63734291E+02</totfact>
</mgrwt>
</event>
<event>
 8      1 +1.6198320e-01 3.06332700e+02 7.81860800e-03 1.08211700e-01
       -1 -1    0    0    0  501 -0.0000000000e+00 +0.0000000000e+00 +6.0488407586e+01 6.0488407796e+01 5.0400000000e-03 0.0000e+00 -1.0000e+00
        1 -1    0    0  501    0 +0.0000000000e+00 -0.0000000000e+00 -3.8784182239e+02 3.8784182242e+02 5.0400000000e-03 0.0000e+00 1.0000e+00
  1000101  2    1    2    0    0 -7.6012417360e+01 -4.2690482869e+01 -1.8486629795e+02 2.3963700191e+02 1.2509987868e+02 6.9911e+01 0.0000e+00
 -1000101  2    1    2    0    0 +7.6012417360e+01 +4.2690482869e+01 -1.4248711685e+02 2.0869322830e+02 1.2509964089e+02 2.6447e+01 0.0000e+00
       11  1    3    3    0    0 -9.4170689803e-02 -1.3768449019e-01 -2.2510139244e-01 2.8017143976e-01 5.1100000000e-04 0.0000e+00 1.0000e+00
      255  1    3    3    0    0 -7.5918246670e+01 -4.2552798378e+01 -1.8464119656e+02 2.3935683047e+02 1.2500000000e+02 0.0000e+00 0.0000e+00
      -11  1    4    4    0    0 +1.1399729515e-01 +1.1528891558e-01 -2.3324205119e-01 2.8405815060e-01 5.1100000000e-04 0.0000e+00 -1.0000e+00
      255  1    4    4    0    0 +7.5898420064e+01 +4.2575193953e+01 -1.4225387480e+02 2.0840917015e+02 1.2500000000e+02 0.0000e+00 0.0000e+00
<mgrwt>
<rscale>  0 0.30633272E+03</rscale>
<asrwt>0</asrwt>
<pdfrwt beam="1">  1        1 0.59667971E-01 0.30633272E+03</pdfrwt>
<pdfrwt beam="2">  1       -1 0.93059091E-02 0.30633272E+03</pdfrwt>
<totfact> 0.42939148E+03</totfact>
</mgrwt>
</event>
<event>
 8      1 +1.6198320e-01 3.45766500e+02 7.81860800e-03 1.06436600e-01
        2 -1    0    0  501    0 +0.0000000000e+00 +0.0000000000e+00 +2.9745059776e+03 2.9745059776e+03 2.5500000000e-03 0.0000e+00 1.0000e+00
       -2 -1    0    0    0  501 -0.0000000000e+00 -0.0000000000e+00 -1.0048265032e+01 1.0048265355e+01 2.5500000000e-03 0.0000e+00 -1.0000e+00
  1000101  2    1    2    0    0 +5.7355861217e+01 -8.3886286900e+01 +2.0221055624e+03 2.0285185661e+03 1.2510021341e+02 1.7909e+01 0.0000e+00
 -1000101  2    1    2    0    0 -5.7355861217e+01 +8.3886286900e+01 +9.4235215013e+02 9.5603567686e+02 1.2510010645e+02 5.3470e+01 0.0000e+00
       11  1    3    3    0    0 +1.5513114671e-01 -1.0990419507e-01 +2.4368791553e+00 2.4442841249e+00 5.1100000000e-04 0.0000e+00 1.0000e+00
      255  1    3    3    0    0 +5.7200730070e+01 -8.3776382705e+01 +2.0196686833e+03 2.0260742819e+03 1.2500000000e+02 0.0000e+00 0.0000e+00
      -11  1    4    4    0    0 -8.4667909700e-02 +1.7203921281e-01 +1.4306431286e+00 1.4434355435e+00 5.1100000000e-04 0.0000e+00 -1.0000e+00
      255  1    4    4    0    0 -5.7271193307e+01 +8.3714247688e+01 +9.4092150700e+02 9.5459224132e+02 1.2500000000e+02 0.0000e+00 0.0000e+00
<mgrwt>
<rscale>  0 0.34576654E+03</rscale>
<asrwt>0</asrwt>
<pdfrwt beam="1">  1        2 0.45761769E+00 0.34576654E+03</pdfrwt>
<pdfrwt beam="2">  1       -2 0.15458823E-02 0.34576654E+03</pdfrwt>
<totfact> 0.24170112E+03</totfact>
</mgrwt>
</event>
<event>
 8      1 +1.6198320e-01 4.87859400e+02 7.81860800e-03 1.01699700e-01
       -1 -1    0    0    0  501 -0.0000000000e+00 +0.0000000000e+00 +1.0006386095e+02 1.0006386108e+02 5.0400000000e-03 0.0000e+00 1.0000e+00
        1 -1    0    0  501    0 +0.0000000000e+00 -0.0000000000e+00 -5.9463735820e+02 5.9463735822e+02 5.0400000000e-03 0.0000e+00 -1.0000e+00
  1000101  2    1    2    0    0 +1.8088375754e+02 -7.1038780778e+01 -3.5837764086e+02 4.2643872992e+02 1.2510001914e+02 2.3715e+02 0.0000e+00
 -1000101  2    1    2    0    0 -1.8088375754e+02 +7.1038780778e+01 -1.3619585639e+02 2.6826248938e+02 1.2509999918e+02 1.5456e+01 0.0000e+00
       11  1    3    3    0    0 +2.9501574673e-01 -5.1205772142e-02 -5.1832891284e-01 5.9859956977e-01 5.1100000000e-04 0.0000e+00 1.0000e+00
      255  1    3    3    0    0 +1.8058874180e+02 -7.0987575006e+01 -3.5785931195e+02 4.2584013035e+02 1.2500000000e+02 0.0000e+00 0.0000e+00
      -11  1    4    4    0    0 +2.6418175733e-02 +2.8938736386e-02 -4.3504878529e-02 5.8551738227e-02 5.1100000000e-04 0.0000e+00 -1.0000e+00
      255  1    4    4    0    0 -1.8091017572e+02 +7.1009842042e+01 -1.3615235152e+02 2.6820393765e+02 1.2500000000e+02 0.0000e+00 0.0000e+00
<mgrwt>
<rscale>  0 0.48785945E+03</rscale>
<asrwt>0</asrwt>
<pdfrwt beam="1">  1        1 0.91482669E-01 0.48785945E+03</pdfrwt>
<pdfrwt beam="2">  1       -1 0.15394440E-01 0.48785945E+03</pdfrwt>
<totfact> 0.10988630E+03</totfact>
</mgrwt>
</event>
<event>
 8      1 +1.6198320e-01 2.61030300e+02 7.81860800e-03 1.10652600e-01
        2 -1    0    0  501    0 +0.0000000000e+00 +0.0000000000e+00 +1.0374786926e+02 1.0374786929e+02 2.5500000000e-03 0.0000e+00 1.0000e+00
       -2 -1    0    0    0  501 -0.0000000000e+00 -0.0000000000e+00 -1.6418847620e+02 1.6418847622e+02 2.5500000000e-03 0.0000e+00 -1.0000e+00
  1000101  2    1    2    0    0 +5.1404466379e-01 -1.3254228995e+01 -6.5899903698e+01 1.4201676536e+02 1.2510006198e+02 1.1954e+01 0.0000e+00
 -1000101  2    1    2    0    0 -5.1404466379e-01 +1.3254228995e+01 +5.4592967555e+00 1.2591958016e+02 1.2509995171e+02 2.5540e+01 0.0000e+00
       11  1    3    3    0    0 -9.2581798903e-02 -3.2563545021e-02 -2.0257999960e-02 1.0021188371e-01 5.1100000000e-04 0.0000e+00 1.0000e+00
      255  1    3    3    0    0 +6.0662646270e-01 -1.3221665450e+01 -6.5879645698e+01 1.4191655348e+02 1.2500000000e+02 0.0000e+00 0.0000e+00
      -11  1    4    4    0    0 -8.5970910018e-02 -2.1736422880e-02 -3.6136060134e-02 9.5757743352e-02 5.1100000000e-04 0.0000e+00 -1.0000e+00
      255  1    4    4    0    0 -4.2807375377e-01 +1.3275965418e+01 +5.4954328156e+00 1.2582382241e+02 1.2500000000e+02 0.0000e+00 0.0000e+00
<mgrwt>
<rscale>  0 0.26103030E+03</rscale>
<asrwt>0</asrwt>
<pdfrwt beam="1">  1        2 0.15961211E-01 0.26103030E+03</pdfrwt>
<pdfrwt beam="2">  1       -2 0.25259766E-01 0.26103030E+03</pdfrwt>
<totfact> 0.50023790E+03</totfact>
</mgrwt>
</event>
<event>
 8      1 +1.6198320e-01 4.86877300e+02 7.81860800e-03 1.01726200e-01
        3 -1    0    0  501    0 +0.0000000000e+00 +0.0000000000e+00 +9.8871948705e+02 9.8871949221e+02 1.0100000000e-01 0.0000e+00 1.0000e+00
       -3 -1    0    0    0  501 -0.0000000000e+00 -0.0000000000e+00 -5.9938475593e+01 5.9938560689e+01 1.0100000000e-01 0.0000e+00 -1.0000e+00
  1000101  2    1    2    0    0 +1.1000025748e+02 -1.1328283822e+02 +1.7001962235e+02 2.6360907375e+02 1.2510001479e+02 2.6225e+00 0.0000e+00
 -1000101  2    1    2    0    0 -1.1000025748e+02 +1.1328283822e+02 +7.5876138911e+02 7.8504897915e+02 1.2509994397e+02 1.8221e+02 0.0000e+00
       11  1    3    3    0    0 +1.2870159755e-01 -1.1784064340e-01 +2.9177847319e-01 3.3997861255e-01 5.1100000000e-04 0.0000e+00 1.0000e+00
      255  1    3    3    0    0 +1.0987155588e+02 -1.1316499757e+02 +1.6972784388e+02 2.6326909514e+02 1.2500000000e+02 0.0000e+00 0.0000e+00
      -11  1    4    4    0    0 -7.5638377903e-02 +1.5484374340e-01 +4.0156926380e-01 4.3698499269e-01 5.1100000000e-04 0.0000e+00 -1.0000e+00
      255  1    4    4    0    0 -1.0992461910e+02 +1.1312799447e+02 +7.5835981984e+02 7.8461199415e+02 1.2500000000e+02 0.0000e+00 0.0000e+00
<mgrwt>
<rscale>  0 0.48687734E+03</rscale>
<asrwt>0</asrwt>
<pdfrwt beam="1">  1        3 0.15211070E+00 0.48687734E+03</pdfrwt>
<pdfrwt beam="2">  1       -3 0.92213106E-02 0.48687734E+03</pdfrwt>
<totfact> 0.72334765E+01</totfact>
</mgrwt>
</event>
<event>
 8      1 +1.6198320e-01 2.70660500e+02 7.81860800e-03 1.10090200e-01
        1 -1    0    0  501    0 +0.0000000000e+00 +0.0000000000e+00 +6.6061646301e+02 6.6061646303e+02 5.0400000000e-03 0.0000e+00 1.0000e+00
       -1 -1    0    0    0  501 -0.0000000000e+00 -0.0000000000e+00 -2.7723003496e+01 2.7723003954e+01 5.0400000000e-03 0.0000e+00 -1.0000e+00
  1000101  2    1    2    0    0 +8.1873747370e+00 +3.2724728244e+01 +2.1708894912e+02 2.5281527125e+02 1.2509999442e+02 3.9706e+01 0.0000e+00
 -1000101  2    1    2    0    0 -8.1873747370e+00 -3.2724728244e+01 +4.1580451040e+02 4.3552419574e+02 1.2509993310e+02 5.7718e+00 0.0000e+00
       11  1    3    3    0    0 +4.9782750472e-02 +1.0890558498e-01 +2.9653239254e-01 3.1979754476e-01 5.1100000000e-04 0.0000e+00 1.0000e+00
      255  1    3    3    0    0 +8.1375919865e+00 +3.2615822659e+01 +2.1679241673e+02 2.5249547371e+02 1.2500000000e+02 0.0000e+00 0.0000e+00
      -11  1    4    4    0    0 -6.6277191874e-02 +3.5199630290e-02 +4.7182813175e-01 4.7775906812e-01 5.1100000000e-04 0.0000e+00 -1.0000e+00
      255  1    4    4    0    0 -8.1210975451e+00 -3.2759927875e+01 +4.1533268226e+02 4.3504643667e+02 1.2500000000e+02 0.0000e+00 0.0000e+00
<mgrwt>
<rscale>  0 0.27066047E+03</rscale>
<asrwt>0</asrwt>
<pdfrwt beam="1">  1        1 0.10163330E+00 0.27066047E+03</pdfrwt>
<pdfrwt beam="2">  1       -1 0.42650776E-02 0.27066047E+03</pdfrwt>
<totfact> 0.68273781E+03</totfact>
</mgrwt>
</event>
<event>
 8      1 +1.6198320e-01 3.96368300e+02 7.81860800e-03 1.04504400e-01
        2 -1    0    0  501    0 +0.0000000000e+00 +0.0000000000e+00 +5.8511010163e+02 5.8511010163e+02 2.5500000000e-03 0.0000e+00 1.0000e+00
       -2 -1    0    0    0  501 -0.0000000000e+00 -0.0000000000e+00 -6.7127476376e+01 6.7127476425e+01 2.5500000000e-03 0.0000e+00 -1.0000e+00
  1000101  2    1    2    0    0 +1.4150479295e+02 +2.7332721657e+01 +1.7104725103e+02 2.5627684720e+02 1.2509986502e+02 1.5556e+02 0.0000e+00
 -1000101  2    1    2    0    0 -1.4150479295e+02 -2.7332721657e+01 +3.4693537423e+02 3.9596073085e+02 1.2510020938e+02 1.5361e+01 0.0000e+00
       11  1    3    3    0    0 +1.0574238383e-01 -3.8303185366e-02 +2.3221921115e-01 2.5802055906e-01 5.1100000000e-04 0.0000e+00 1.0000e+00
      255  1    3    3    0    0 +1.4139905057e+02 +2.7371024842e+01 +1.7081503181e+02 2.5601882665e+02 1.2500000000e+02 0.0000e+00 0.0000e+00
      -11  1    4    4    0    0 -2.3329864676e-01 +2.6681513949e-02 +4.2328624811e-01 4.8405750766e-01 5.1100000000e-04 0.0000e+00 -1.0000e+00
      255  1    4    4    0    0 -1.4127149431e+02 -2.7359403171e+01 +3.4651208798e+02 3.9547667335e+02 1.2500000000e+02 0.0000e+00 0.0000e+00
<mgrwt>
<rscale>  0 0.39636834E+03</rscale>
<asrwt>0</asrwt>
<pdfrwt beam="1">  1        2 0.90016941E-01 0.39636834E+03</pdfrwt>
<pdfrwt beam="2">  1       -2 0.10327304E-01 0.39636834E+03</pdfrwt>
<totfact> 0.32933634E+03</totfact>
</mgrwt>
</event>
<event>
 8      1 +1.6198320e-01 3.11329400e+02 7.81860800e-03 1.07971000e-01
       -2 -1    0    0    0  501 -0.0000000000e+00 +0.0000000000e+00 +1.3806456494e+02 1.3806456496e+02 2.5500000000e-03 0.0000e+00 -1.0000e+00
        2 -1    0    0  501    0 +0.0000000000e+00 -0.0000000000e+00 -1.7550847246e+02 1.7550847247e+02 2.5500000000e-03 0.0000e+00 1.0000e+00
  1000101  2    1    2    0    0 -9.1915478935e+01 -1.0760793186e+01 -2.2903965809e+01 1.5728586666e+02 1.2509996908e+02 6.4962e+00 0.0000e+00
 -1000101  2    1    2    0    0 +9.1915478935e+01 +1.0760793186e+01 -1.4539941706e+01 1.5628717078e+02 1.2510003960e+02 3.6400e+01 0.0000e+00
       11  1    3    3    0    0 -1.9160608639e-01 -2.4930523293e-02 -4.4435474286e-04 1.9322236389e-01 5.1100000000e-04 0.0000e+00 1.0000e+00
      255  1    3    3    0    0 -9.1723872848e+01 -1.0735862663e+01 -2.2903521454e+01 1.5709264430e+02 1.2500000000e+02 0.0000e+00 0.0000e+00
      -11  1    4    4    0    0 +6.1861599536e-02 -8.2920825164e-02 +3.0559425411e-02 1.0787428028e-01 5.1100000000e-04 0.0000e+00 -1.0000e+00
      255  1    4    4    0    0 +9.1853617335e+01 +1.0843714012e+01 -1.4570501132e+01 1.5617929650e+02 1.2500000000e+02 0.0000e+00 0.0000e+00
<mgrwt>
<rscale>  0 0.31132941E+03</rscale>
<asrwt>0</asrwt>
<pdfrwt beam="1">  1        2 0.27001304E-01 0.31132941E+03</pdfrwt>
<pdfrwt beam="2">  1       -2 0.21240702E-01 0.31132941E+03</pdfrwt>
<totfact> 0.37337185E+03</totfact>
</mgrwt>
</event>
<event>
 8      1 +1.6198320e-01 4.17697200e+02 7.81860800e-03 1.03781800e-01
       -2 -1    0    0    0  501 -0.0000000000e+00 +0.0000000000e+00 +6.9891511765e+01 6.9891511812e+01 2.5500000000e-03 0.0000e+00 -1.0000e+00
        2 -1    0    0  501    0 +0.0000000000e+00 -0.0000000000e+00 -6.2407769371e+02 6.2407769371e+02 2.5500000000e-03 0.0000e+00 1.0000e+00
  1000101  2    1    2    0    0 +7.5562384379e+01 +1.1712715824e+02 -1.2356405286e+02 2.2438014868e+02 1.2509968357e+02 1.3973e+02 0.0000e+00
 -1000101  2    1    2    0    0 -7.5562384379e+01 -1.1712715824e+02 -4.3062212908e+02 4.6958905685e+02 1.2510003647e+02 3.7787e+02 0.0000e+00
       11  1    3    3    0    0 +1.2387013929e-01 +1.2121449053e-01 -2.2680714474e-01 2.8544440115e-01 5.1100000000e-04 0.0000e+00 1.0000e+00
      255  1    3    3    0    0 +7.5438514240e+01 +1.1700594375e+02 -1.2333724572e+02 2.2409470428e+02 1.2500000000e+02 0.0000e+00 0.0000e+00
      -11  1    4    4    0    0 -6.2172867092e-02 -3.2755257567e-02 -3.8526303433e-02 8.0143056330e-02 5.1100000000e-04 0.0000e+00 -1.0000e+00
      255  1    4    4    0    0 -7.5500211512e+01 -1.1709440298e+02 -4.3058360278e+02 4.6950891379e+02 1.2500000000e+02 0.0000e+00 0.0000e+00
<mgrwt>
<rscale>  0 0.41769718E+03</rscale>
<asrwt>0</asrwt>
<pdfrwt beam="1">  1        2 0.96011949E-01 0.41769718E+03</pdfrwt>
<pdfrwt beam="2">  1       -2 0.10752541E-01 0.41769718E+03</pdfrwt>
<totfact> 0.28610121E+03</totfact>
</mgrwt>
</event>
<event>
 8      1 +1.6198320e-01 3.06204000e+02 7.81860800e-03 1.08218000e-01
        2 -1    0    0  501    0 +0.0000000000e+00 +0.0000000000e+00 +6.6544569833e+01 6.6544569882e+01 2.5500000000e-03 0.0000e+00 -1.0000e+00
       -2 -1    0    0    0  501 -0.0000000000e+00 -0.0000000000e+00 -3.5224839646e+02 3.5224839647e+02 2.5500000000e-03 0.0000e+00 1.0000e+00
  1000101  2    1    2    0    0 +4.5544848166e+01 +5.1312320996e+01 -2.1879149231e+02 2.6120301116e+02 1.2509999381e+02 1.7351e+02 0.0000e+00
 -1000101  2    1    2    0    0 -4.5544848166e+01 -5.1312320996e+01 -6.6912334310e+01 1.5758995519e+02 1.2510014393e+02 8.3752e+01 0.0000e+00
       11  1    3    3    0    0 -2.5117181620e-02 -4.6914066288e-02 -1.5708949387e-01 1.6585889374e-01 5.1100000000e-04 0.0000e+00 1.0000e+00
      255  1    3    3    0    0 +4.5569965347e+01 +5.1359235062e+01 -2.1863440282e+02 2.6103715227e+02 1.2500000000e+02 0.0000e+00 0.0000e+00
      -11  1    4    4    0    0 +5.6783582696e-02 -7.6046618521e-02 -2.3397037348e-02 9.7750426750e-02 5.1100000000e-04 0.0000e+00 -1.0000e+00
      255  1    4    4    0    0 -4.5601631748e+01 -5.1236274377e+01 -6.6888937273e+01 1.5749220476e+02 1.2500000000e+02 0.0000e+00 0.0000e+00
<mgrwt>
<rscale>  0 0.30620397E+03</rscale>
<asrwt>0</asrwt>
<pdfrwt beam="1">  1        2 0.10237626E-01 0.30620397E+03</pdfrwt>
<pdfrwt beam="2">  1       -2 0.54192060E-01 0.30620397E+03</pdfrwt>
<totfact> 0.20329472E+03</totfact>
</mgrwt>
</event>
<event>
 8      1 +1.6198320e-01 3.43441000e+02 7.81860800e-03 1.06534000e-01
        4 -1    0    0  501    0 +0.0000000000e+00 +0.0000000000e+00 +2.2005939565e+02 2.2006306032e+02 1.2700000000e+00 0.0000e+00 1.0000e+00
       -4 -1    0    0    0  501 -0.0000000000e+00 -0.0000000000e+00 -1.3399209113e+02 1.3399810964e+02 1.2700000000e+00 0.0000e+00 -1.0000e+00
  1000101  2    1    2    0    0 +1.8428148145e+01 -1.0620189430e+02 -5.5344906878e+00 1.6522438258e+02 1.2510006800e+02 1.8103e+02 0.0000e+00
 -1000101  2    1    2    0    0 -1.8428148145e+01 +1.0620189430e+02 +9.1601795209e+01 1.8883678737e+02 1.2509997754e+02 5.7332e+01 0.0000e+00
       11  1    3    3    0    0 +8.0305355377e-02 -1.1526373379e-01 +6.8912810532e-02 1.5647336836e-01 5.1100000000e-04 0.0000e+00 1.0000e+00
      255  1    3    3    0    0 +1.8347842789e+01 -1.0608663057e+02 -5.6034034983e+00 1.6506790921e+02 1.2500000000e+02 0.0000e+00 0.0000e+00
      -11  1    4    4    0    0 +1.0380529904e-02 -4.3407306701e-02 +4.1323956618e-02 6.0826640450e-02 5.1100000000e-04 0.0000e+00 -1.0000e+00
      255  1    4    4    0    0 -1.8438528675e+01 +1.0624530161e+02 +9.1560471253e+01 1.8877596073e+02 1.2500000000e+02 0.0000e+00 0.0000e+00
<mgrwt>
<rscale>  0 0.34344102E+03</rscale>
<asrwt>0</asrwt>
<pdfrwt beam="1">  1        4 0.33856036E-01 0.34344102E+03</pdfrwt>
<pdfrwt beam="2">  1       -4 0.20614913E-01 0.34344102E+03</pdfrwt>
<totfact> 0.34589403E+02</totfact>
</mgrwt>
</event>
<event>
 8      1 +1.6198320e-01 3.35025800e+02 7.81860800e-03 1.06893500e-01
       -2 -1    0    0    0  501 -0.0000000000e+00 +0.0000000000e+00 +3.9312801001e+01 3.9312801084e+01 2.5500000000e-03 0.0000e+00 -1.0000e+00
        2 -1    0    0  501    0 +0.0000000000e+00 -0.0000000000e+00 -7.1377684398e+02 7.1377684399e+02 2.5500000000e-03 0.0000e+00 1.0000e+00
  1000101  2    1    2    0    0 +4.6925256227e+01 +1.0063625602e+02 -3.1700950344e+02 3.5843362743e+02 1.2509997723e+02 1.3790e+02 0.0000e+00
 -1000101  2    1    2    0    0 -4.6925256227e+01 -1.0063625602e+02 -3.5745453954e+02 3.9465601764e+02 1.2509991497e+02 4.8686e+01 0.0000e+00
       11  1    3    3    0    0 -4.4239278821e-02 +1.2483666295e-01 -3.3912754549e-01 3.6407287655e-01 5.1100000000e-04 0.0000e+00 1.0000e+00
      255  1    3    3    0    0 +4.6969495506e+01 +1.0051141935e+02 -3.1667037589e+02 3.5806955455e+02 1.2500000000e+02 0.0000e+00 0.0000e+00
      -11  1    4    4    0    0 -2.0004880072e-02 -1.0569551680e-01 -8.2009045073e-02 1.3526818581e-01 5.1100000000e-04 0.0000e+00 -1.0000e+00
      255  1    4    4    0    0 -4.6905251347e+01 -1.0053056050e+02 -3.5737253050e+02 3.9452074946e+02 1.2500000000e+02 0.0000e+00 0.0000e+00
<mgrwt>
<rscale>  0 0.33502577E+03</rscale>
<asrwt>0</asrwt>
<pdfrwt beam="1">  1        2 0.10981181E+00 0.33502577E+03</pdfrwt>
<pdfrwt beam="2">  1       -2 0.60481238E-02 0.33502577E+03</pdfrwt>
<totfact> 0.60059307E+03</totfact>
</mgrwt>
</event>
<event>
 8      1 +1.6198320e-01 2.77567100e+02 7.81860800e-03 1.09702500e-01
        2 -1    0    0  501    0 +0.0000000000e+00 +0.0000000000e+00 +4.9878167850e+02 4.9878167851e+02 2.5500000000e-03 0.0000e+00 1.0000e+00
       -2 -1    0    0    0  501 -0.0000000000e+00 -0.0000000000e+00 -3.8615835873e+01 3.8615835958e+01 2.5500000000e-03 0.0000e+00 -1.0000e+00
  1000101  2    1    2    0    0 -4.6265680363e+01 +2.1243059640e+01 +1.6827659588e+02 2.1577476572e+02 1.2509978432e+02 2.3131e+02 0.0000e+00
 -1000101  2    1    2    0    0 +4.6265680363e+01 -2.1243059640e+01 +2.9188924675e+02 3.2162274875e+02 1.2510027730e+02 4.8019e+01 0.0000e+00
       11  1    3    3    0    0 -1.2936689699e-01 +6.0409609617e-02 +1.3188775224e-01 1.9437015019e-01 5.1100000000e-04 0.0000e+00 1.0000e+00
      255  1    3    3    0    0 -4.6136313466e+01 +2.1182650030e+01 +1.6814470812e+02 2.1558039557e+02 1.2500000000e+02 0.0000e+00 0.0000e+00
      -11  1    4    4    0    0 +1.3368321704e-01 +9.8114133949e-03 +2.2780058376e-01 2.6431200017e-01 5.1100000000e-04 0.0000e+00 -1.0000e+00
      255  1    4    4    0    0 +4.6131997146e+01 -2.1252871053e+01 +2.9166144617e+02 3.2135843675e+02 1.2500000000e+02 0.0000e+00 0.0000e+00
<mgrwt>
<rscale>  0 0.27756708E+03</rscale>
<asrwt>0</asrwt>
<pdfrwt beam="1">  1        2 0.76735641E-01 0.27756708E+03</pdfrwt>
<pdfrwt beam="2">  1       -2 0.59408980E-02 0.27756708E+03</pdfrwt>
<totfact> 0.93319153E+03</totfact>
</mgrwt>
</event>
<event>
 8      1 +1.6198320e-01 3.11864900e+02 7.81860800e-03 1.07945500e-01
       -2 -1    0    0    0  501 -0.0000000000e+00 +0.0000000000e+00 +1.5544461493e+01 1.5544461702e+01 2.5500000000e-03 0.0000e+00 -1.0000e+00
        2 -1    0    0  501    0 +0.0000000000e+00 -0.0000000000e+00 -1.5642177302e+03 1.5642177302e+03 2.5500000000e-03 0.0000e+00 1.0000e+00
  1000101  2    1    2    0    0 -5.4546938397e+01 -3.8254933361e+01 -4.4503671492e+02 4.6706167562e+02 1.2510045080e+02 1.4403e+01 0.0000e+00
 -1000101  2    1    2    0    0 +5.4546938397e+01 +3.8254933361e+01 -1.1036365538e+03 1.1127005163e+03 1.2509991076e+02 1.3469e+02 0.0000e+00
       11  1    3    3    0    0 +1.1044709648e-02 +6.4892525655e-02 -1.7136218177e-01 1.8357092352e-01 5.1100000000e-04 0.0000e+00 1.0000e+00
      255  1    3    3    0    0 -5.4557983106e+01 -3.8319825887e+01 -4.4486535274e+02 4.6687810470e+02 1.2500000000e+02 0.0000e+00 0.0000e+00
      -11  1    4    4    0    0 +1.0731176393e-01 -1.1793368170e-02 -4.6911637421e-01 4.8137857440e-01 5.1100000000e-04 0.0000e+00 -1.0000e+00
      255  1    4    4    0    0 +5.4439626633e+01 +3.8266726730e+01 -1.1031674374e+03 1.1122191377e+03 1.2500000000e+02 0.0000e+00 0.0000e+00
<mgrwt>
<rscale>  0 0.31186486E+03</rscale>
<asrwt>0</asrwt>
<pdfrwt beam="1">  1        2 0.24064876E+00 0.31186486E+03</pdfrwt>
<pdfrwt beam="2">  1       -2 0.23914569E-02 0.31186486E+03</pdfrwt>
<totfact> 0.74981839E+03</totfact>
</mgrwt>
</event>
<event>
 8      1 +1.6198320e-01 2.60798000e+02 7.81860800e-03 1.10666500e-01
       -2 -1    0    0    0  501 -0.0000000000e+00 +0.0000000000e+00 +1.0328934340e+01 1.0328934655e+01 2.5500000000e-03 0.0000e+00 -1.0000e+00
        2 -1    0    0  501    0 +0.0000000000e+00 -0.0000000000e+00 -1.6462388978e+03 1.6462388978e+03 2.5500000000e-03 0.0000e+00 1.0000e+00
  1000101  2    1    2    0    0 -6.1585513684e+00 -3.5333877928e+01 -8.7013310572e+02 8.7981136279e+02 1.2509996699e+02 6.4910e+00 0.0000e+00
 -1000101  2    1    2    0    0 +6.1585513684e+00 +3.5333877928e+01 -7.6577685771e+02 7.7675646963e+02 1.2509998654e+02 4.3660e+02 0.0000e+00
       11  1    3    3    0    0 -6.6541036950e-02 -6.0167810050e-02 -1.2647849522e+00 1.2679625829e+00 5.1100000000e-04 0.0000e+00 1.0000e+00
      255  1    3    3    0    0 -6.0920103314e+00 -3.5273710118e+01 -8.6886832077e+02 8.7854340021e+02 1.2500000000e+02 0.0000e+00 0.0000e+00
      -11  1    4    4    0    0 -6.2545033692e-02 +1.0390807419e-01 -6.9375670734e-01 7.0427792754e-01 5.1100000000e-04 0.0000e+00 -1.0000e+00
      255  1    4    4    0    0 +6.2210964021e+00 +3.5229969854e+01 -7.6508310100e+02 7.7605219171e+02 1.2500000000e+02 0.0000e+00 0.0000e+00
<mgrwt>
<rscale>  0 0.26079796E+03</rscale>
<asrwt>0</asrwt>
<pdfrwt beam="1">  1        2 0.25326731E+00 0.26079796E+03</pdfrwt>
<pdfrwt beam="2">  1       -2 0.15890682E-02 0.26079796E+03</pdfrwt>
<totfact> 0.12347076E+04</totfact>
</mgrwt>
</event>
<event>
 8      1 +1.6198320e-01 3.39459200e+02 7.81860800e-03 1.06702600e-01
        2 -1    0    0  501    0 +0.0000000000e+00 +0.0000000000e+00 +9.4553985870e+02 9.4553985871e+02 2.5500000000e-03 0.0000e+00 1.0000e+00
       -2 -1    0    0    0  501 -0.0000000000e+00 -0.0000000000e+00 -3.0467393299e+01 3.0467393405e+01 2.5500000000e-03 0.0000e+00 -1.0000e+00
  1000101  2    1    2    0    0 -9.3636351718e+01 -6.6187841635e+01 +4.4866252036e+02 4.7968391381e+02 1.2509997300e+02 1.1692e+02 0.0000e+00
 -1000101  2    1    2    0    0 +9.3636351718e+01 +6.6187841635e+01 +4.6640994504e+02 4.9632333830e+02 1.2510005023e+02 1.6755e+02 0.0000e+00
       11  1    3    3    0    0 -1.9727416345e-01 -7.9714275998e-02 +6.1816105493e-01 6.5375439755e-01 5.1100000000e-04 0.0000e+00 1.0000e+00
      255  1    3    3    0    0 -9.3439077555e+01 -6.6108127359e+01 +4.4804435931e+02 4.7903015941e+02 1.2500000000e+02 0.0000e+00 0.0000e+00
      -11  1    4    4    0    0 +6.9565852249e-02 -2.0201350037e-02 +6.7288067282e-02 9.8870862555e-02 5.1100000000e-04 0.0000e+00 -1.0000e+00
      255  1    4    4    0    0 +9.3566785866e+01 +6.6208042985e+01 +4.6634265698e+02 4.9622446744e+02 1.2500000000e+02 0.0000e+00 0.0000e+00
<mgrwt>
<rscale>  0 0.33945919E+03</rscale>
<asrwt>0</asrwt>
<pdfrwt beam="1">  1        2 0.14546766E+00 0.33945919E+03</pdfrwt>
<pdfrwt beam="2">  1       -2 0.46872917E-02 0.33945919E+03</pdfrwt>
<totfact> 0.61594631E+03</totfact>
</mgrwt>
</event>
<event>
 8      1 +1.6198320e-01 3.86373000e+02 7.81860800e-03 1.04860300e-01
       -2 -1    0    0    0  501 -0.0000000000e+00 +0.0000000000e+00 +1.5226406496e+03 1.5226406496e+03 2.5500000000e-03 0.0000e+00 -1.0000e+00
        2 -1    0    0  501    0 +0.0000000000e+00 -0.0000000000e+00 -2.4510718517e+01 2.4510718650e+01 2.5500000000e-03 0.0000e+00 1.0000e+00
  1000101  2    1    2    0    0 -2.5026926776e+01 +1.0156402472e+02 +3.3428833173e+02 3.7194123546e+02 1.2509994295e+02 1.7543e+02 0.0000e+00
 -1000101  2    1    2    0    0 +2.5026926776e+01 -1.0156402472e+02 +1.1638415994e+03 1.1752101328e+03 1.2509991862e+02 8.3356e+00 0.0000e+00
       11  1    3    3    0    0 +3.8013883943e-02 +1.7202666570e-01 +4.2194266804e-01 4.5724621958e-01 5.1100000000e-04 0.0000e+00 1.0000e+00
      255  1    3    3    0    0 -2.5064940660e+01 +1.0139199806e+02 +3.3386638906e+02 3.7148398924e+02 1.2500000000e+02 0.0000e+00 0.0000e+00
      -11  1    4    4    0    0 +7.7757114655e-03 -1.6262153596e-01 +7.4036347334e-01 7.5805313760e-01 5.1100000000e-04 0.0000e+00 -1.0000e+00
      255  1    4    4    0    0 +2.5019151065e+01 -1.0140140319e+02 +1.1631012359e+03 1.1744520797e+03 1.2500000000e+02 0.0000e+00 0.0000e+00
<mgrwt>
<rscale>  0 0.38637296E+03</rscale>
<asrwt>0</asrwt>
<pdfrwt beam="1">  1        2 0.37708781E-02 0.38637296E+03</pdfrwt>
<pdfrwt beam="2">  1       -2 0.23425251E+00 0.38637296E+03</pdfrwt>
<totfact> 0.20341312E+02</totfact>
</mgrwt>
</event>
<event>
 8      1 +1.6198320e-01 6.13883900e+02 7.81860800e-03 9.87701300e-02
        2 -1    0    0  501    0 +0.0000000000e+00 +0.0000000000e+00 +3.2860444798e+03 3.2860444798e+03 2.5500000000e-03 0.0000e+00 1.0000e+00
       -2 -1    0    0    0  501 -0.0000000000e+00 -0.0000000000e+00 -2.8670750509e+01 2.8670750622e+01 2.5500000000e-03 0.0000e+00 -1.0000e+00
  1000101  2    1    2    0    0 +1.5344487926e+02 -2.2323656906e+02 +1.2399339746e+03 1.2753297607e+03 1.2509932160e+02 1.4676e+02 0.0000e+00
 -1000101  2    1    2    0    0 -1.5344487926e+02 +2.2323656906e+02 +2.0174397546e+03 2.0393854697e+03 1.2510009521e+02 1.9425e+01 0.0000e+00
       11  1    3    3    0    0 +1.9056321860e-01 -1.2021460203e-01 +7.6600276498e-01 7.9845249571e-01 5.1100000000e-04 0.0000e+00 1.0000e+00
      255  1    3    3    0    0 +1.5325431604e+02 -2.2311635446e+02 +1.2391679719e+03 1.2745313082e+03 1.2500000000e+02 0.0000e+00 0.0000e+00
      -11  1    4    4    0    0 -1.5147811922e-01 +3.4118445500e-01 +2.7879266505e+00 2.8128078006e+00 5.1100000000e-04 0.0000e+00 -1.0000e+00
      255  1    4    4    0    0 -1.5329340114e+02 +2.2289538461e+02 +2.0146518280e+03 2.0365726619e+03 1.2500000000e+02 0.0000e+00 0.0000e+00
<mgrwt>
<rscale>  0 0.61388390E+03</rscale>
<asrwt>0</asrwt>
<pdfrwt beam="1">  1        2 0.50554509E+00 0.61388390E+03</pdfrwt>
<pdfrwt beam="2">  1       -2 0.44108866E-02 0.61388390E+03</pdfrwt>
<totfact> 0.30958898E+02</totfact>
</mgrwt>
</event>
<event>
 8      1 +1.6198320e-01 2.61279100e+02 7.81860800e-03 1.10637700e-01
        2 -1    0    0  501    0 +0.0000000000e+00 +0.0000000000e+00 +2.7284371185e+02 2.7284371186e+02 2.5500000000e-03 0.0000e+00 1.0000e+00
       -2 -1    0    0    0  501 -0.0000000000e+00 -0.0000000000e+00 -6.2551161571e+01 6.2551161623e+01 2.5500000000e-03 0.0000e+00 -1.0000e+00
  1000101  2    1    2    0    0 +2.9738543455e-01 -1.2420088348e+01 +1.5075387996e+02 1.9629337980e+02 1.2510000638e+02 2.5789e+01 0.0000e+00
 -1000101  2    1    2    0    0 -2.9738543455e-01 +1.2420088348e+01 +5.9538670314e+01 1.3910149368e+02 1.2510006095e+02 6.1382e+01 0.0000e+00
       11  1    3    3    0    0 -7.9766239214e-02 +6.6966242765e-03 +2.0823072449e-01 2.2308696385e-01 5.1100000000e-04 0.0000e+00 1.0000e+00
      255  1    3    3    0    0 +3.7715167377e-01 -1.2426784972e+01 +1.5054564924e+02 1.9607029284e+02 1.2500000000e+02 0.0000e+00 0.0000e+00
      -11  1    4    4    0    0 +4.3450510515e-02 -2.1922889549e-02 -4.7112340896e-02 6.7737683281e-02 5.1100000000e-04 0.0000e+00 -1.0000e+00
      255  1    4    4    0    0 -3.4083594507e-01 +1.2442011238e+01 +5.9585782655e+01 1.3903375600e+02 1.2500000000e+02 0.0000e+00 0.0000e+00
<mgrwt>
<rscale>  0 0.26127909E+03</rscale>
<asrwt>0</asrwt>
<pdfrwt beam="1">  1        2 0.41975956E-01 0.26127909E+03</pdfrwt>
<pdfrwt beam="2">  1       -2 0.96232556E-02 0.26127909E+03</pdfrwt>
<totfact> 0.84610405E+03</totfact>
</mgrwt>
</event>
<event>
 8      1 +1.6198320e-01 4.74382700e+02 7.81860800e-03 1.02069000e-01
       -2 -1    0    0    0  501 -0.0000000000e+00 +0.0000000000e+00 +5.0694651552e+01 5.0694651616e+01 2.5500000000e-03 0.0000e+00 -1.0000e+00
        2 -1    0    0  501    0 +0.0000000000e+00 -0.0000000000e+00 -1.1097764351e+03 1.1097764351e+03 2.5500000000e-03 0.0000e+00 1.0000e+00
  1000101  2    1    2    0    0 +1.5171511348e+02 +1.2848464733e+02 -6.1008054558e+02 6.5373851719e+02 1.2509994606e+02 1.6865e+02 0.0000e+00
 -1000101  2    1    2    0    0 -1.5171511348e+02 -1.2848464733e+02 -4.4900123798e+02 5.0673256954e+02 1.2509998029e+02 1.0350e+02 0.0000e+00
       11  1    3    3    0    0 +8.0019204405e-02 +1.9083021674e-01 -4.5660757958e-01 5.0130827596e-01 5.1100000000e-04 0.0000e+00 1.0000e+00
      255  1    3    3    0    0 +1.5163509428e+02 +1.2829381711e+02 -6.0962393800e+02 6.5323720892e+02 1.2500000000e+02 0.0000e+00 0.0000e+00
      -11  1    4    4    0    0 -1.3622326728e-02 -5.4966573008e-02 -1.9371994724e-02 5.9853381145e-02 5.1100000000e-04 0.0000e+00 -1.0000e+00
      255  1    4    4    0    0 -1.5170149116e+02 -1.2842968076e+02 -4.4898186599e+02 5.0667271616e+02 1.2500000000e+02 0.0000e+00 0.0000e+00
<mgrwt>
<rscale>  0 0.47438267E+03</rscale>
<asrwt>0</asrwt>
<pdfrwt beam="1">  1        2 0.17073482E+00 0.47438267E+03</pdfrwt>
<pdfrwt beam="2">  1       -2 0.77991780E-02 0.47438267E+03</pdfrwt>
<totfact> 0.22186564E+03</totfact>
</mgrwt>
</event>
<event>
 8      1 +1.6198320e-01 2.99757400e+02 7.81860800e-03 1.08536200e-01
        2 -1    0    0  501    0 +0.0000000000e+00 +0.0000000000e+00 +5.2254147631e+02 5.2254147631e+02 2.5500000000e-03 0.0000e+00 1.0000e+00
       -2 -1    0    0    0  501 -0.0000000000e+00 -0.0000000000e+00 -4.2989160716e+01 4.2989160791e+01 2.5500000000e-03 0.0000e+00 -1.0000e+00
  1000101  2    1    2    0    0 -1.6348938668e+01 +6.4406845244e+01 +3.3216403808e+02 3.6110731780e+02 1.2510002905e+02 2.8421e+01 0.0000e+00
 -1000101  2    1    2    0    0 +1.6348938668e+01 -6.4406845244e+01 +1.4738827751e+02 2.0442331930e+02 1.2510019830e+02 4.6106e+01 0.0000e+00
       11  1    3    3    0    0 -3.8826384226e-02 +1.1817533811e-01 +5.4094304863e-01 5.5506084498e-01 5.1100000000e-04 0.0000e+00 1.0000e+00
      255  1    3    3    0    0 -1.6310112284e+01 +6.4288669905e+01 +3.3162309503e+02 3.6055225696e+02 1.2500000000e+02 0.0000e+00 0.0000e+00
      -11  1    4    4    0    0 -3.9281870742e-02 -6.2868296431e-02 -5.0669159551e-03 7.4306277150e-02 5.1100000000e-04 0.0000e+00 -1.0000e+00
      255  1    4    4    0    0 +1.6388220539e+01 -6.4343976947e+01 +1.4739334443e+02 2.0434901302e+02 1.2500000000e+02 0.0000e+00 0.0000e+00
<mgrwt>
<rscale>  0 0.29975737E+03</rscale>
<asrwt>0</asrwt>
<pdfrwt beam="1">  1        2 0.80391001E-01 0.29975737E+03</pdfrwt>
<pdfrwt beam="2">  1       -2 0.66137167E-02 0.29975737E+03</pdfrwt>
<totfact> 0.75264204E+03</totfact>
</mgrwt>
</event>
<event>
 8      1 +1.6198320e-01 3.44234800e+02 7.81860800e-03 1.06500600e-01
       -2 -1    0    0    0  501 -0.0000000000e+00 +0.0000000000e+00 +6.1450686309e+01 6.1450686362e+01 2.5500000000e-03 0.0000e+00 -1.0000e+00
        2 -1    0    0  501    0 +0.0000000000e+00 -0.0000000000e+00 -4.8208420836e+02 4.8208420836e+02 2.5500000000e-03 0.0000e+00 1.0000e+00
  1000101  2    1    2    0    0 -1.0999766859e+02 -2.5846133438e+00 -2.7856466898e+02 3.2458348777e+02 1.2509995366e+02 1.3581e+02 0.0000e+00
 -1000101  2    1    2    0    0 +1.0999766859e+02 +2.5846133438e+00 -1.4206885307e+02 2.1895140696e+02 1.2509992916e+02 6.7860e+01 0.0000e+00
       11  1    3    3    0    0 +4.5971665744e-03 +2.3219048112e-02 -2.5147483045e-01 2.5258683577e-01 5.1100000000e-04 0.0000e+00 1.0000e+00
      255  1    3    3    0    0 -1.1000226576e+02 -2.6078323920e+00 -2.7831319415e+02 3.2433090093e+02 1.2500000000e+02 0.0000e+00 0.0000e+00
      -11  1    4    4    0    0 +1.3612659237e-01 +7.4969943108e-02 -6.4738340695e-02 1.6835158270e-01 5.1100000000e-04 0.0000e+00 -1.0000e+00
      255  1    4    4    0    0 +1.0986154200e+02 +2.5096434007e+00 -1.4200411473e+02 2.1878305538e+02 1.2500000000e+02 0.0000e+00 0.0000e+00
<mgrwt>
<rscale>  0 0.34423484E+03</rscale>
<asrwt>0</asrwt>
<pdfrwt beam="1">  1        2 0.74166799E-01 0.34423484E+03</pdfrwt>
<pdfrwt beam="2">  1       -2 0.94539520E-02 0.34423484E+03</pdfrwt>
<totfact> 0.47240059E+03</totfact>
</mgrwt>
</event>
<event>
 8      1 +1.6198320e-01 2.70263400e+02 7.81860800e-03 1.10112900e-01
       -2 -1    0    0    0  501 -0.0000000000e+00 +0.0000000000e+00 +1.6268032787e+02 1.6268032789e+02 2.5500000000e-03 0.0000e+00 1.0000e+00
        2 -1    0    0  501    0 +0.0000000000e+00 -0.0000000000e+00 -1.1224817623e+02 1.1224817626e+02 2.5500000000e-03 0.0000e+00 -1.0000e+00
  1000101  2    1    2    0    0 -3.5459562017e+01 +1.1635097491e+01 -1.0284346173e+01 1.3095235161e+02 1.2509993838e+02 8.0058e+00 0.0000e+00
 -1000101  2    1    2    0    0 +3.5459562017e+01 -1.1635097491e+01 +6.0716497813e+01 1.4397615254e+02 1.2509949385e+02 2.6357e+01 0.0000e+00
       11  1    3    3    0    0 +6.8526518848e-02 +3.9178875726e-02 +1.0026521062e-02 7.9571730752e-02 5.1100000000e-04 0.0000e+00 1.0000e+00
      255  1    3    3    0    0 -3.5528088535e+01 +1.1595918615e+01 -1.0294372694e+01 1.3087277988e+02 1.2500000000e+02 0.0000e+00 0.0000e+00
      -11  1    4    4    0    0 -7.5092854524e-02 -9.1301865169e-03 +3.8887200180e-02 8.5057466256e-02 5.1100000000e-04 0.0000e+00 -1.0000e+00
      255  1    4    4    0    0 +3.5534654871e+01 -1.1625967305e+01 +6.0677610612e+01 1.4389109508e+02 1.2500000000e+02 0.0000e+00 0.0000e+00
<mgrwt>
<rscale>  0 0.27026335E+03</rscale>
<asrwt>0</asrwt>
<pdfrwt beam="1">  1        2 0.17268950E-01 0.27026335E+03</pdfrwt>
<pdfrwt beam="2">  1       -2 0.25027743E-01 0.27026335E+03</pdfrwt>
<totfact> 0.46426470E+03</totfact>
</mgrwt>
</event>
<event>
 8      1 +1.6198320e-01 3.25131000e+02 7.81860800e-03 1.07331200e-01
       -2 -1    0    0    0  501 -0.0000000000e+00 +0.0000000000e+00 +4.2541216463e+01 4.2541216540e+01 2.5500000000e-03 0.0000e+00 -1.0000e+00
        2 -1    0    0  501    0 +0.0000000000e+00 -0.0000000000e+00 -6.2122197721e+02 6.2122197722e+02 2.5500000000e-03 0.0000e+00 1.0000e+00
  1000101  2    1    2    0    0 -1.7955889470e+01 -7.4441331089e+01 -4.3244564393e+02 4.5664337723e+02 1.2510001308e+02 4.7725e+01 0.0000e+00
 -1000101  2    1    2    0    0 +1.7955889470e+01 +7.4441331089e+01 -1.4623511681e+02 2.0711981652e+02 1.2509989315e+02 1.5391e+02 0.0000e+00
       11  1    3    3    0    0 -6.9630018767e-02 -1.5489981097e-01 -6.0072296632e-01 6.2426807890e-01 5.1100000000e-04 0.0000e+00 1.0000e+00
      255  1    3    3    0    0 -1.7886259451e+01 -7.4286431278e+01 -4.3184492097e+02 4.5601910916e+02 1.2500000000e+02 0.0000e+00 0.0000e+00
      -11  1    4    4    0    0 +5.8230278827e-02 +1.4491937763e-01 -8.6580450661e-02 1.7857442970e-01 5.1100000000e-04 0.0000e+00 -1.0000e+00
      255  1    4    4    0    0 +1.7897659191e+01 +7.4296411712e+01 -1.4614853636e+02 2.0694124209e+02 1.2500000000e+02 0.0000e+00 0.0000e+00
<mgrwt>
<rscale>  0 0.32513098E+03</rscale>
<asrwt>0</asrwt>
<pdfrwt beam="1">  1        2 0.95572605E-01 0.32513098E+03</pdfrwt>
<pdfrwt beam="2">  1       -2 0.65448030E-02 0.32513098E+03</pdfrwt>
<totfact> 0.62794937E+03</totfact>
</mgrwt>
</event>
<event>
 8      1 +1.6198320e-01 3.58866200e+02 7.81860800e-03 1.05903400e-01
       -2 -1    0    0    0  501 -0.0000000000e+00 +0.0000000000e+00 +1.1927961494e+02 1.1927961497e+02 2.5500000000e-03 0.0000e+00 -1.0000e+00
        2 -1    0    0  501    0 +0.0000000000e+00 -0.0000000000e+00 -2.6992243441e+02 2.6992243442e+02 2.5500000000e-03 0.0000e+00 1.0000e+00
  1000101  2    1    2    0    0 -8.0630326050e+01 +5.4850924125e+01 +1.5652422177e+01 1.5938908598e+02 1.2509999621e+02 1.5937e+00 0.0000e+00
 -1000101  2    1    2    0    0 +8.0630326050e+01 -5.4850924125e+01 -1.6629524165e+02 2.2981296341e+02 1.2510002958e+02 4.8242e+00 0.0000e+00
       11  1    3    3    0    0 -7.7440867798e-02 -5.4552551235e-02 -2.0243906434e-02 9.6866638844e-02 5.1100000000e-04 0.0000e+00 1.0000e+00
      255  1    3    3    0    0 -8.0552885182e+01 +5.4905476676e+01 +1.5672666083e+01 1.5929221934e+02 1.2500000000e+02 0.0000e+00 0.0000e+00
      -11  1    4    4    0    0 +6.9128318638e-02 -1.2749989375e-01 -7.4599488690e-02 1.6309596003e-01 5.1100000000e-04 0.0000e+00 -1.0000e+00
      255  1    4    4    0    0 +8.0561197731e+01 -5.4723424231e+01 -1.6622064216e+02 2.2964986745e+02 1.2500000000e+02 0.0000e+00 0.0000e+00
<mgrwt>
<rscale>  0 0.35886624E+03</rscale>
<asrwt>0</asrwt>
<pdfrwt beam="1">  1        2 0.41526528E-01 0.35886624E+03</pdfrwt>
<pdfrwt beam="2">  1       -2 0.18350710E-01 0.35886624E+03</pdfrwt>
<totfact> 0.30018730E+03</totfact>
</mgrwt>
</event>
<event>
 8      1 +1.6198320e-01 4.68156800e+02 7.81860800e-03 1.02244200e-01
       -2 -1    0    0    0  501 -0.0000000000e+00 +0.0000000000e+00 +8.6276728707e+01 8.6276728745e+01 2.5500000000e-03 0.0000e+00 -1.0000e+00
        2 -1    0    0  501    0 +0.0000000000e+00 -0.0000000000e+00 -6.3508074686e+02 6.3508074687e+02 2.5500000000e-03 0.0000e+00 1.0000e+00
  1000101  2    1    2    0    0 -2.7478027416e+01 +1.9543471467e+02 -2.9580490620e+02 3.7696185419e+02 1.2509966942e+02 4.3740e+01 0.0000e+00
 -1000101  2    1    2    0    0 +2.7478027416e+01 -1.9543471467e+02 -2.5299911195e+02 3.4439562142e+02 1.2510005484e+02 6.5438e+00 0.0000e+00
       11  1    3    3    0    0 -7.9954628988e-02 +1.5305684721e-01 -3.7223408190e-01 4.1033841403e-01 5.1100000000e-04 0.0000e+00 1.0000e+00
      255  1    3    3    0    0 -2.7398072787e+01 +1.9528165782e+02 -2.9543267212e+02 3.7655151577e+02 1.2500000000e+02 0.0000e+00 0.0000e+00
      -11  1    4    4    0    0 +5.1114949185e-02 -1.8115802958e-01 -8.7775142866e-02 2.0769137329e-01 5.1100000000e-04 0.0000e+00 -1.0000e+00
      255  1    4    4    0    0 +2.7426912467e+01 -1.9525355664e+02 -2.5291133681e+02 3.4418793005e+02 1.2500000000e+02 0.0000e+00 0.0000e+00
<mgrwt>
<rscale>  0 0.46815677E+03</rscale>
<asrwt>0</asrwt>
<pdfrwt beam="1">  1        2 0.97704727E-01 0.46815677E+03</pdfrwt>
<pdfrwt beam="2">  1       -2 0.13273343E-01 0.46815677E+03</pdfrwt>
<totfact> 0.19870556E+03</totfact>
</mgrwt>
</event>
<event>
 8      1 +1.6198320e-01 3.15672000e+02 7.81860800e-03 1.07765900e-01
       -2 -1    0    0    0  501 -0.0000000000e+00 +0.0000000000e+00 +6.6747844611e+01 6.6747844660e+01 2.5500000000e-03 0.0000e+00 -1.0000e+00
        2 -1    0    0  501    0 +0.0000000000e+00 -0.0000000000e+00 -3.7322847679e+02 3.7322847680e+02 2.5500000000e-03 0.0000e+00 1.0000e+00
  1000101  2    1    2    0    0 -5.7084203361e+01 -6.8931461132e+01 -1.0392273775e+02 1.8563430912e+02 1.2509999479e+02 9.8978e+01 0.0000e+00
 -1000101  2    1    2    0    0 +5.7084203361e+01 +6.8931461132e+01 -2.0255789443e+02 2.5434201234e+02 1.2509998415e+02 1.7282e+01 0.0000e+00
       11  1    3    3    0    0 -5.1047137255e-02 -1.5049101792e-02 -1.8427690958e-01 1.9180856658e-01 5.1100000000e-04 0.0000e+00 1.0000e+00
      255  1    3    3    0    0 -5.7033156223e+01 -6.8916412030e+01 -1.0373846084e+02 1.8544250056e+02 1.2500000000e+02 0.0000e+00 0.0000e+00
      -11  1    4    4    0    0 -5.0869307075e-02 +3.7890365643e-02 -2.5611960069e-02 6.8407600679e-02 5.1100000000e-04 0.0000e+00 -1.0000e+00
      255  1    4    4    0    0 +5.7135072668e+01 +6.8893570766e+01 -2.0253228247e+02 2.5427360474e+02 1.2500000000e+02 0.0000e+00 0.0000e+00
<mgrwt>
<rscale>  0 0.31567196E+03</rscale>
<asrwt>0</asrwt>
<pdfrwt beam="1">  1        2 0.57419765E-01 0.31567196E+03</pdfrwt>
<pdfrwt beam="2">  1       -2 0.10268899E-01 0.31567196E+03</pdfrwt>
<totfact> 0.54773141E+03</totfact>
</mgrwt>
</event>
<event>
 8      1 +1.6198320e-01 3.51143600e+02 7.81860800e-03 1.06214700e-01
       -1 -1    0    0    0  501 -0.0000000000e+00 +0.0000000000e+00 +1.3687485483e+02 1.3687485492e+02 5.0400000000e-03 0.0000e+00 1.0000e+00
        1 -1    0    0  501    0 +0.0000000000e+00 -0.0000000000e+00 -2.2520910919e+02 2.2520910925e+02 5.0400000000e-03 0.0000e+00 -1.0000e+00
  1000101  2    1    2    0    0 -7.9693164579e+01 -7.7601072081e+01 -9.8755578573e+01 1.9435939761e+02 1.2509989717e+02 1.1335e+02 0.0000e+00
 -1000101  2    1    2    0    0 +7.9693164579e+01 +7.7601072081e+01 +1.0421324212e+01 1.6772456656e+02 1.2509995747e+02 8.1319e+00 0.0000e+00
       11  1    3    3    0    0 +4.1536597341e-02 -4.1182815838e-03 -7.8137238511e-02 8.8588590266e-02 5.1100000000e-04 0.0000e+00 1.0000e+00
      255  1    3    3    0    0 -7.9734701176e+01 -7.7596953800e+01 -9.8677441334e+01 1.9427080902e+02 1.2500000000e+02 0.0000e+00 0.0000e+00
      -11  1    4    4    0    0 -4.4048183083e-02 +4.0482487550e-02 +4.5480159046e-02 7.5151714681e-02 5.1100000000e-04 0.0000e+00 -1.0000e+00
      255  1    4    4    0    0 +7.9737212762e+01 +7.7560589594e+01 +1.0375844053e+01 1.6764941484e+02 1.2500000000e+02 0.0000e+00 0.0000e+00
<mgrwt>
<rscale>  0 0.35114364E+03</rscale>
<asrwt>0</asrwt>
<pdfrwt beam="1">  1        1 0.34647555E-01 0.35114364E+03</pdfrwt>
<pdfrwt beam="2">  1       -1 0.21057670E-01 0.35114364E+03</pdfrwt>
<totfact> 0.23437064E+03</totfact>
</mgrwt>
</event>
<event>
 8      1 +1.6198320e-01 4.79565500e+02 7.81860800e-03 1.01925500e-01
       -2 -1    0    0    0  501 -0.0000000000e+00 +0.0000000000e+00 +5.7192328471e+01 5.7192328527e+01 2.5500000000e-03 0.0000e+00 -1.0000e+00
        2 -1    0    0  501    0 +0.0000000000e+00 -0.0000000000e+00 -1.0053055321e+03 1.0053055321e+03 2.5500000000e-03 0.0000e+00 1.0000e+00
  1000101  2    1    2    0    0 -6.8258009856e+01 -1.0346203403e+02 -1.1351348232e+02 2.0952056695e+02 1.2509999566e+02 1.5114e+02 0.0000e+00
 -1000101  2    1    2    0    0 +6.8258009856e+01 +1.0346203403e+02 -8.3459972130e+02 8.5297729366e+02 1.2510004123e+02 2.0311e+02 0.0000e+00
       11  1    3    3    0    0 -1.1965373958e-03 +4.4412910795e-02 -4.0205248256e-02 5.9922128268e-02 5.1100000000e-04 0.0000e+00 1.0000e+00
      255  1    3    3    0    0 -6.8256813318e+01 -1.0350644694e+02 -1.1347327707e+02 2.0946064483e+02 1.2500000000e+02 0.0000e+00 0.0000e+00
      -11  1    4    4    0    0 +7.8769875855e-02 +1.7622098567e-01 -6.3620793292e-01 6.6484533853e-01 5.1100000000e-04 0.0000e+00 -1.0000e+00
      255  1    4    4    0    0 +6.8179239980e+01 +1.0328581304e+02 -8.3396351336e+02 8.5231244832e+02 1.2500000000e+02 0.0000e+00 0.0000e+00
<mgrwt>
<rscale>  0 0.47956549E+03</rscale>
<asrwt>0</asrwt>
<pdfrwt beam="1">  1        2 0.15466238E+00 0.47956549E+03</pdfrwt>
<pdfrwt beam="2">  1       -2 0.87988205E-02 0.47956549E+03</pdfrwt>
<totfact> 0.21219636E+03</totfact>
</mgrwt>
</event>
<event>
 8      1 +1.6198320e-01 2.75470100e+02 7.81860800e-03 1.09818900e-01
       -2 -1    0    0    0  501 -0.0000000000e+00 +0.0000000000e+00 +1.7117148602e+01 1.7117148792e+01 2.5500000000e-03 0.0000e+00 -1.0000e+00
        2 -1    0    0  501    0 +0.0000000000e+00 -0.0000000000e+00 -1.1083005740e+03 1.1083005740e+03 2.5500000000e-03 0.0000e+00 1.0000e+00
  1000101  2    1    2    0    0 +3.7301467303e+01 +4.1891024802e+01 -5.9958381268e+02 6.1505858873e+02 1.2510020672e+02 1.9184e+01 0.0000e+00
 -1000101  2    1    2    0    0 -3.7301467303e+01 -4.1891024802e+01 -4.9159961268e+02 5.1035913402e+02 1.2509999631e+02 1.8591e+01 0.0000e+00
       11  1    3    3    0    0 +1.2036445462e-01 -3.8354449461e-03 -4.2606429557e-01 4.4275654445e-01 5.1100000000e-04 0.0000e+00 1.0000e+00
      255  1    3    3    0    0 +3.7181102848e+01 +4.1894860247e+01 -5.9915774839e+02 6.1461583219e+02 1.2500000000e+02 0.0000e+00 0.0000e+00
      -11  1    4    4    0    0 -4.8909379351e-02 +4.5642423137e-02 -5.5201400606e-01 5.5605312893e-01 5.1100000000e-04 0.0000e+00 -1.0000e+00
      255  1    4    4    0    0 -3.7252557924e+01 -4.1936667225e+01 -4.9104759867e+02 5.0980308090e+02 1.2500000000e+02 0.0000e+00 0.0000e+00
<mgrwt>
<rscale>  0 0.27547011E+03</rscale>
<asrwt>0</asrwt>
<pdfrwt beam="1">  1        2 0.17050773E+00 0.27547011E+03</pdfrwt>
<pdfrwt beam="2">  1       -2 0.26334084E-02 0.27547011E+03</pdfrwt>
<totfact> 0.11599228E+04</totfact>
</mgrwt>
</event>
<event>
 8      1 +1.6198320e-01 3.64856700e+02 7.81860800e-03 1.05667700e-01
       -1 -1    0    0    0  501 -0.0000000000e+00 +0.0000000000e+00 +7.7371106647e+02 7.7371106648e+02 5.0400000000e-03 0.0000e+00 1.0000e+00
        1 -1    0    0  501    0 +0.0000000000e+00 -0.0000000000e+00 -4.3013597472e+01 4.3013597767e+01 5.0400000000e-03 0.0000e+00 -1.0000e+00
  1000101  2    1    2    0    0 -5.1284844312e+01 -1.1445843773e+02 +2.6779563015e+02 3.2108466676e+02 1.2509993796e+02 1.9092e+02 0.0000e+00
 -1000101  2    1    2    0    0 +5.1284844312e+01 +1.1445843773e+02 +4.6290183885e+02 4.9563999749e+02 1.2510006187e+02 6.8345e+01 0.0000e+00
       11  1    3    3    0    0 +4.5391982215e-02 -1.8780594769e-02 +1.5914609910e-02 5.1639894645e-02 5.1100000000e-04 0.0000e+00 1.0000e+00
      255  1    3    3    0    0 -5.1330236295e+01 -1.1443965714e+02 +2.6777971554e+02 3.2103302686e+02 1.2500000000e+02 0.0000e+00 0.0000e+00
      -11  1    4    4    0    0 -5.6728098647e-02 +1.0954537971e-01 +3.8288030059e-01 4.0226341257e-01 5.1100000000e-04 0.0000e+00 -1.0000e+00
      255  1    4    4    0    0 +5.1341572411e+01 +1.1434889236e+02 +4.6251895855e+02 4.9523773408e+02 1.2500000000e+02 0.0000e+00 0.0000e+00
<mgrwt>
<rscale>  0 0.36485667E+03</rscale>
<asrwt>0</asrwt>
<pdfrwt beam="1">  1        1 0.66174772E-02 0.36485667E+03</pdfrwt>
<pdfrwt beam="2">  1       -1 0.11903246E+00 0.36485667E+03</pdfrwt>
<totfact> 0.76259636E+02</totfact>
</mgrwt>
</event>
<event>
 8      1 +1.6198320e-01 1.24042600e+03 7.81860800e-03 9.07818900e-02
       -2 -1    0    0    0  501 -0.0000000000e+00 +0.0000000000e+00 +1.2654291133e+02 1.2654291136e+02 2.5500000000e-03 0.0000e+00 -1.0000e+00
        2 -1    0    0  501    0 +0.0000000000e+00 -0.0000000000e+00 -3.0397944064e+03 3.0397944064e+03 2.5500000000e-03 0.0000e+00 1.0000e+00
  1000101  2    1    2    0    0 +4.5693463745e+02 -3.9261273786e+02 -1.6556736735e+03 1.7663066347e+03 1.2509911916e+02 1.3541e+02 0.0000e+00
 -1000101  2    1    2    0    0 -4.5693463745e+02 +3.9261273786e+02 -1.2575778215e+03 1.4000306831e+03 1.2509960650e+02 8.0040e+01 0.0000e+00
       11  1    3    3    0    0 +7.0354280152e-01 -5.4151887608e-01 -2.3192505545e+00 2.4833724171e+00 5.1100000000e-04 0.0000e+00 1.0000e+00
      255  1    3    3    0    0 +4.5623109465e+02 -3.9207121898e+02 -1.6533544230e+03 1.7638232622e+03 1.2500000000e+02 0.0000e+00 0.0000e+00
      -11  1    4    4    0    0 -2.9768871782e-01 +2.8658666353e-01 -6.4894226409e-01 7.6933530510e-01 5.1100000000e-04 0.0000e+00 -1.0000e+00
      255  1    4    4    0    0 -4.5663694873e+02 +3.9232615119e+02 -1.2569288793e+03 1.3992613478e+03 1.2500000000e+02 0.0000e+00 0.0000e+00
<mgrwt>
<rscale>  0 0.12404264E+04</rscale>
<asrwt>0</asrwt>
<pdfrwt beam="1">  1        2 0.46766062E+00 0.12404264E+04</pdfrwt>
<pdfrwt beam="2">  1       -2 0.19468142E-01 0.12404264E+04</pdfrwt>
<totfact> 0.36754538E+01</totfact>
</mgrwt>
</event>
<event>
 8      1 +1.6198320e-01 6.78713900e+02 7.81860800e-03 9.75434300e-02
        2 -1    0    0  501    0 +0.0000000000e+00 +0.0000000000e+00 +4.4796148803e+02 4.4796148804e+02 2.5500000000e-03 0.0000e+00 1.0000e+00
       -2 -1    0    0    0  501 -0.0000000000e+00 -0.0000000000e+00 -2.5708268964e+02 2.5708268965e+02 2.5500000000e-03 0.0000e+00 -1.0000e+00
  1000101  2    1    2    0    0 -2.2591896911e+02 +7.9060296160e+01 +3.0889402827e+02 4.1031127291e+02 1.2509959610e+02 1.7241e+02 0.0000e+00
 -1000101  2    1    2    0    0 +2.2591896911e+02 -7.9060296160e+01 -1.1801522988e+02 2.9473290478e+02 1.2509987867e+02 8.0898e+01 0.0000e+00
       11  1    3    3    0    0 -1.8618855694e-01 +1.5076309051e-01 +3.6619952447e-01 4.3760489147e-01 5.1100000000e-04 0.0000e+00 1.0000e+00
      255  1    3    3    0    0 -2.2573278056e+02 +7.8909533070e+01 +3.0852782875e+02 4.0987366802e+02 1.2500000000e+02 0.0000e+00 0.0000e+00
      -11  1    4    4    0    0 +2.1305405078e-01 -2.6264781259e-02 -1.9791581551e-01 2.9198081861e-01 5.1100000000e-04 0.0000e+00 -1.0000e+00
      255  1    4    4    0    0 +2.2570591506e+02 -7.9034031379e+01 -1.1781731406e+02 2.9444092396e+02 1.2500000000e+02 0.0000e+00 0.0000e+00
<mgrwt>
<rscale>  0 0.67871391E+03</rscale>
<asrwt>0</asrwt>
<pdfrwt beam="1">  1        2 0.68917152E-01 0.67871391E+03</pdfrwt>
<pdfrwt beam="2">  1       -2 0.39551183E-01 0.67871391E+03</pdfrwt>
<totfact> 0.42610893E+02</totfact>
</mgrwt>
</event>
<event>
 8      1 +1.6198320e-01 3.45264900e+02 7.81860800e-03 1.06457500e-01
        4 -1    0    0  501    0 +0.0000000000e+00 +0.0000000000e+00 +5.7581639121e+02 5.7581779174e+02 1.2700000000e+00 0.0000e+00 1.0000e+00
       -4 -1    0    0    0  501 -0.0000000000e+00 -0.0000000000e+00 -5.1746766398e+01 5.1762348600e+01 1.2700000000e+00 0.0000e+00 -1.0000e+00
  1000101  2    1    2    0    0 +1.1835384426e+02 -4.8224036679e+00 +2.8203336206e+02 3.3049012264e+02 1.2510002327e+02 1.1439e+01 0.0000e+00
 -1000101  2    1    2    0    0 -1.1835384426e+02 +4.8224036679e+00 +2.4203626276e+02 2.9709001770e+02 1.2510011232e+02 8.7177e+01 0.0000e+00
       11  1    3    3    0    0 +3.6063978154e-03 +7.2946348998e-02 +1.1945135478e-01 1.4001093963e-01 5.1100000000e-04 0.0000e+00 1.0000e+00
      255  1    3    3    0    0 +1.1835023786e+02 -4.8953500169e+00 +2.8191391070e+02 3.3035011170e+02 1.2500000000e+02 0.0000e+00 0.0000e+00
      -11  1    4    4    0    0 -1.9832769251e-01 +7.0202111324e-02 +2.7143847794e-01 3.4342585587e-01 5.1100000000e-04 0.0000e+00 -1.0000e+00
      255  1    4    4    0    0 -1.1815551656e+02 +4.7522015566e+00 +2.4176482428e+02 2.9674659185e+02 1.2500000000e+02 0.0000e+00 0.0000e+00
<mgrwt>
<rscale>  0 0.34526491E+03</rscale>
<asrwt>0</asrwt>
<pdfrwt beam="1">  1        4 0.88588440E-01 0.34526491E+03</pdfrwt>
<pdfrwt beam="2">  1       -4 0.79623476E-02 0.34526491E+03</pdfrwt>
<totfact> 0.24077116E+02</totfact>
</mgrwt>
</event>
<event>
 8      1 +1.6198320e-01 4.40619100e+02 7.81860800e-03 1.03055700e-01
        2 -1    0    0  501    0 +0.0000000000e+00 +0.0000000000e+00 +1.2994570222e+03 1.2994570222e+03 2.5500000000e-03 0.0000e+00 1.0000e+00
       -2 -1    0    0    0  501 -0.0000000000e+00 -0.0000000000e+00 -3.7351214617e+01 3.7351214704e+01 2.5500000000e-03 0.0000e+00 -1.0000e+00
  1000101  2    1    2    0    0 -3.6977685492e+01 -1.2096602849e+02 +1.0253026920e+03 1.0406227673e+03 1.2509997742e+02 5.9152e+00 0.0000e+00
 -1000101  2    1    2    0    0 +3.6977685492e+01 +1.2096602849e+02 +2.3680311552e+02 2.9618546953e+02 1.2509991035e+02 4.0072e+00 0.0000e+00
       11  1    3    3    0    0 -1.1045746639e-01 -9.1035734168e-02 +1.2439258180e+00 1.2521342016e+00 5.1100000000e-04 0.0000e+00 1.0000e+00
      255  1    3    3    0    0 -3.6867228026e+01 -1.2087499276e+02 +1.0240587662e+03 1.0393706331e+03 1.2500000000e+02 0.0000e+00 0.0000e+00
      -11  1    4    4    0    0 -8.6033368060e-03 +4.0564168198e-02 -1.6372967861e-02 4.4584799467e-02 5.1100000000e-04 0.0000e+00 -1.0000e+00
      255  1    4    4    0    0 +3.6986288829e+01 +1.2092546432e+02 +2.3681948849e+02 2.9614088474e+02 1.2500000000e+02 0.0000e+00 0.0000e+00
<mgrwt>
<rscale>  0 0.44061910E+03</rscale>
<asrwt>0</asrwt>
<pdfrwt beam="1">  1        2 0.19991647E+00 0.44061910E+03</pdfrwt>
<pdfrwt beam="2">  1       -2 0.57463406E-02 0.44061910E+03</pdfrwt>
<totfact> 0.27789810E+03</totfact>
</mgrwt>
</event>
<event>
 8      1 +1.6198320e-01 3.80085900e+02 7.81860800e-03 1.05090200e-01
       -2 -1    0    0    0  501 -0.0000000000e+00 +0.0000000000e+00 +3.1709456064e+01 3.1709456167e+01 2.5500000000e-03 0.0000e+00 -1.0000e+00
        2 -1    0    0  501    0 +0.0000000000e+00 -0.0000000000e+00 -1.1389763420e+03 1.1389763420e+03 2.5500000000e-03 0.0000e+00 1.0000e+00
  1000101  2    1    2    0    0 -1.2104827446e+02 -6.4311961156e+01 -4.2747836837e+02 4.6602198058e+02 1.2510003143e+02 1.2617e+02 0.0000e+00
 -1000101  2    1    2    0    0 +1.2104827446e+02 +6.4311961156e+01 -6.7978851757e+02 7.0466381759e+02 1.2509977659e+02 6.4957e+01 0.0000e+00
       11  1    3    3    0    0 -1.4882183486e-01 +1.7663198181e-02 -2.3631181852e-01 2.7982756082e-01 5.1100000000e-04 0.0000e+00 1.0000e+00
      255  1    3    3    0    0 -1.2089945263e+02 -6.4329624354e+01 -4.2724205655e+02 4.6574215302e+02 1.2500000000e+02 0.0000e+00 0.0000e+00
      -11  1    4    4    0    0 +9.0111241151e-02 +1.5137527407e-01 -5.4520946172e-01 5.7296433367e-01 5.1100000000e-04 0.0000e+00 -1.0000e+00
      255  1    4    4    0    0 +1.2095816322e+02 +6.4160585881e+01 -6.7924330811e+02 7.0409085326e+02 1.2500000000e+02 0.0000e+00 0.0000e+00
<mgrwt>
<rscale>  0 0.38008589E+03</rscale>
<asrwt>0</asrwt>
<pdfrwt beam="1">  1        2 0.17522710E+00 0.38008589E+03</pdfrwt>
<pdfrwt beam="2">  1       -2 0.48783787E-02 0.38008589E+03</pdfrwt>
<totfact> 0.44235324E+03</totfact>
</mgrwt>
</event>
<event>
 8      1 +1.6198320e-01 2.67233100e+02 7.81860800e-03 1.10287400e-01
       -3 -1    0    0    0  501 -0.0000000000e+00 +0.0000000000e+00 +3.7353052385e+01 3.7353188933e+01 1.0100000000e-01 0.0000e+00 -1.0000e+00
        3 -1    0    0  501    0 +0.0000000000e+00 -0.0000000000e+00 -4.7796206723e+02 4.7796207791e+02 1.0100000000e-01 0.0000e+00 1.0000e+00
  1000101  2    1    2    0    0 +1.2492817365e+01 +2.6106686844e+00 -1.3320350101e+02 1.8318418346e+02 1.2510150404e+02 1.9382e+02 0.0000e+00
 -1000101  2    1    2    0    0 -1.2492817365e+01 -2.6106686844e+00 -3.0740551384e+02 3.3213108338e+02 1.2510004209e+02 3.0662e+01 0.0000e+00
       11  1    3    3    0    0 -6.8013783774e-02 -1.0978092629e-02 -1.9257869215e-01 2.0453167748e-01 5.1100000000e-04 0.0000e+00 1.0000e+00
      255  1    3    3    0    0 +1.2560831149e+01 +2.6216467770e+00 -1.3301092232e+02 1.8297965179e+02 1.2500000000e+02 0.0000e+00 0.0000e+00
      -11  1    4    4    0    0 -8.3632231540e-02 +3.2505568356e-02 -1.0732701473e-01 1.3989392889e-01 5.1100000000e-04 0.0000e+00 -1.0000e+00
      255  1    4    4    0    0 -1.2409185133e+01 -2.6431742527e+00 -3.0729818682e+02 3.3199118945e+02 1.2500000000e+02 0.0000e+00 0.0000e+00
<mgrwt>
<rscale>  0 0.26723308E+03</rscale>
<asrwt>0</asrwt>
<pdfrwt beam="1">  1        3 0.73532633E-01 0.26723308E+03</pdfrwt>
<pdfrwt beam="2">  1       -3 0.57466351E-02 0.26723308E+03</pdfrwt>
<totfact> 0.82849776E+02</totfact>
</mgrwt>
</event>
<event>
 8      1 +1.6198320e-01 3.53254000e+02 7.81860800e-03 1.06128700e-01
        2 -1    0    0  501    0 +0.0000000000e+00 +0.0000000000e+00 +2.7804196851e+03 2.7804196851e+03 2.5500000000e-03 0.0000e+00 1.0000e+00
       -2 -1    0    0    0  501 -0.0000000000e+00 -0.0000000000e+00 -1.1220283576e+01 1.1220283866e+01 2.5500000000e-03 0.0000e+00 -1.0000e+00
  1000101  2    1    2    0    0 +1.2026553198e+01 +5.5613319591e+01 +2.2613851570e+03 2.2655573986e+03 1.2510003532e+02 3.5298e+01 0.0000e+00
 -1000101  2    1    2    0    0 -1.2026553198e+01 -5.5613319591e+01 +5.0781424446e+02 5.2608257029e+02 1.2510029809e+02 2.5615e+02 0.0000e+00
       11  1    3    3    0    0 -5.9376213944e-02 +4.9038718292e-02 +2.9315963808e+00 2.9326077016e+00 5.1100000000e-04 0.0000e+00 1.0000e+00
      255  1    3    3    0    0 +1.2085929412e+01 +5.5564280873e+01 +2.2584535606e+03 2.2626247909e+03 1.2500000000e+02 0.0000e+00 0.0000e+00
      -11  1    4    4    0    0 +4.2974605081e-02 -1.1685941512e-01 +3.0043714351e-01 3.2521635554e-01 5.1100000000e-04 0.0000e+00 -1.0000e+00
      255  1    4    4    0    0 -1.2069527804e+01 -5.5496460176e+01 +5.0751380732e+02 5.2575735393e+02 1.2500000000e+02 0.0000e+00 0.0000e+00
<mgrwt>
<rscale>  0 0.35325400E+03</rscale>
<asrwt>0</asrwt>
<pdfrwt beam="1">  1        2 0.42775681E+00 0.35325400E+03</pdfrwt>
<pdfrwt beam="2">  1       -2 0.17261978E-02 0.35325400E+03</pdfrwt>
<totfact> 0.26654996E+03</totfact>
</mgrwt>
</event>
<event>
 8      1 +1.6198320e-01 2.67441900e+02 7.81860800e-03 1.10275300e-01
       -2 -1    0    0    0  501 -0.0000000000e+00 +0.0000000000e+00 +4.5268505518e+01 4.5268505590e+01 2.5500000000e-03 0.0000e+00 -1.0000e+00
        2 -1    0    0  501    0 +0.0000000000e+00 -0.0000000000e+00 -3.9500501929e+02 3.9500501930e+02 2.5500000000e-03 0.0000e+00 1.0000e+00
  1000101  2    1    2    0    0 -2.1169163288e+01 -2.7349628245e+01 -2.2783367052e+02 2.6221046830e+02 1.2510001049e+02 1.1797e+02 0.0000e+00
 -1000101  2    1    2    0    0 +2.1169163288e+01 +2.7349628245e+01 -1.2190284325e+02 1.7806305659e+02 1.2510001314e+02 5.9141e+00 0.0000e+00
       11  1    3    3    0    0 +9.3416983134e-04 -1.0905887218e-01 -3.0630762506e-01 3.2514509464e-01 5.1100000000e-04 0.0000e+00 1.0000e+00
      255  1    3    3    0    0 -2.1170097457e+01 -2.7240569373e+01 -2.2752736289e+02 2.6188532321e+02 1.2500000000e+02 0.0000e+00 0.0000e+00
      -11  1    4    4    0    0 -2.2696316201e-02 +1.0128449293e-01 -4.2401972963e-02 1.1212430472e-01 5.1100000000e-04 0.0000e+00 -1.0000e+00
      255  1    4    4    0    0 +2.1191859604e+01 +2.7248343752e+01 -1.2186044128e+02 1.7795093228e+02 1.2500000000e+02 0.0000e+00 0.0000e+00
<mgrwt>
<rscale>  0 0.26744186E+03</rscale>
<asrwt>0</asrwt>
<pdfrwt beam="1">  1        2 0.60770001E-01 0.26744186E+03</pdfrwt>
<pdfrwt beam="2">  1       -2 0.69643857E-02 0.26744186E+03</pdfrwt>
<totfact> 0.94281760E+03</totfact>
</mgrwt>
</event>
<event>
 8      1 +1.6198320e-01 7.79158900e+02 7.81860800e-03 9.59068300e-02
        2 -1    0    0  501    0 +0.0000000000e+00 +0.0000000000e+00 +6.9949394307e+02 6.9949394307e+02 2.5500000000e-03 0.0000e+00 1.0000e+00
       -2 -1    0    0    0  501 -0.0000000000e+00 -0.0000000000e+00 -2.1697420973e+02 2.1697420974e+02 2.5500000000e-03 0.0000e+00 -1.0000e+00
  1000101  2    1    2    0    0 +2.4122170894e+02 +2.7671942877e+02 +2.8464604383e+02 4.8107684954e+02 1.2509999909e+02 1.0140e+02 0.0000e+00
 -1000101  2    1    2    0    0 -2.4122170894e+02 -2.7671942877e+02 +1.9787368950e+02 4.3539130327e+02 1.2510009932e+02 5.3642e+00 0.0000e+00
       11  1    3    3    0    0 +2.7301502012e-01 +2.0740727627e-01 +3.4438150078e-01 4.8595664278e-01 5.1100000000e-04 0.0000e+00 1.0000e+00
      255  1    3    3    0    0 +2.4094869392e+02 +2.7651202149e+02 +2.8430166233e+02 4.8059089290e+02 1.2500000000e+02 0.0000e+00 0.0000e+00
      -11  1    4    4    0    0 -1.4169059440e-02 -1.3959114289e-01 +6.0201574354e-02 1.5267920650e-01 5.1100000000e-04 0.0000e+00 -1.0000e+00
      255  1    4    4    0    0 -2.4120753988e+02 -2.7657983763e+02 +1.9781348793e+02 4.3523862407e+02 1.2500000000e+02 0.0000e+00 0.0000e+00
<mgrwt>
<rscale>  0 0.77915889E+03</rscale>
<asrwt>0</asrwt>
<pdfrwt beam="1">  1        2 0.10761445E+00 0.77915889E+03</pdfrwt>
<pdfrwt beam="2">  1       -2 0.33380647E-01 0.77915889E+03</pdfrwt>
<totfact> 0.34575130E+02</totfact>
</mgrwt>
</event>
<event>
 8      1 +1.6198320e-01 3.87338500e+02 7.81860800e-03 1.04825400e-01
        2 -1    0    0  501    0 +0.0000000000e+00 +0.0000000000e+00 +1.6055904430e+02 1.6055904432e+02 2.5500000000e-03 0.0000e+00 1.0000e+00
       -2 -1    0    0    0  501 -0.0000000000e+00 -0.0000000000e+00 -2.3360744420e+02 2.3360744422e+02 2.5500000000e-03 0.0000e+00 -1.0000e+00
  1000101  2    1    2    0    0 +1.1446683084e+02 +4.2611152598e+01 -1.2129582505e+02 2.1279340618e+02 1.2509992346e+02 8.0687e+01 0.0000e+00
 -1000101  2    1    2    0    0 -1.1446683084e+02 -4.2611152598e+01 +4.8247425150e+01 1.8137308236e+02 1.2510002112e+02 9.6289e+01 0.0000e+00
       11  1    3    3    0    0 +1.4229036224e-04 +3.4428228791e-02 +3.2355081029e-02 4.7248656845e-02 5.1100000000e-04 0.0000e+00 1.0000e+00
      255  1    3    3    0    0 +1.1446668855e+02 +4.2576724370e+01 -1.2132818013e+02 2.1274615752e+02 1.2500000000e+02 0.0000e+00 0.0000e+00
      -11  1    4    4    0    0 +1.9854459434e-02 +3.5176542417e-02 -1.6718187856e-02 4.3718961818e-02 5.1100000000e-04 0.0000e+00 -1.0000e+00
      255  1    4    4    0    0 -1.1448668530e+02 -4.2646329141e+01 +4.8264143338e+01 1.8132936340e+02 1.2500000000e+02 0.0000e+00 0.0000e+00
<mgrwt>
<rscale>  0 0.38733855E+03</rscale>
<asrwt>0</asrwt>
<pdfrwt beam="1">  1        2 0.24701392E-01 0.38733855E+03</pdfrwt>
<pdfrwt beam="2">  1       -2 0.35939607E-01 0.38733855E+03</pdfrwt>
<totfact> 0.16041381E+03</totfact>
</mgrwt>
</event>
<event>
 8      1 +1.6198320e-01 3.31258800e+02 7.81860800e-03 1.07058100e-01
        3 -1    0    0  501    0 +0.0000000000e+00 +0.0000000000e+00 +6.0848981906e+01 6.0849065728e+01 1.0100000000e-01 0.0000e+00 -1.0000e+00
       -3 -1    0    0    0  501 -0.0000000000e+00 -0.0000000000e+00 -4.5083863518e+02 4.5083864649e+02 1.0100000000e-01 0.0000e+00 1.0000e+00
  1000101  2    1    2    0    0 -6.2380960537e+01 +6.1843561542e+01 -9.6485395113e+01 1.8076359780e+02 1.2510010583e+02 6.8544e+01 0.0000e+00
 -1000101  2    1    2    0    0 +6.2380960537e+01 -6.1843561542e+01 -2.9350425816e+02 3.3092411442e+02 1.2509999841e+02 1.0301e+02 0.0000e+00
       11  1    3    3    0    0 -1.5946163605e-01 +4.9725213784e-02 -1.1035276783e-01 2.0019641542e-01 5.1100000000e-04 0.0000e+00 1.0000e+00
      255  1    3    3    0    0 -6.2221498901e+01 +6.1793836329e+01 -9.6375042345e+01 1.8056340139e+02 1.2500000000e+02 0.0000e+00 0.0000e+00
      -11  1    4    4    0    0 +6.1542455557e-02 -4.0238412346e-02 -2.2554877319e-02 7.6912855077e-02 5.1100000000e-04 0.0000e+00 -1.0000e+00
      255  1    4    4    0    0 +6.2319418082e+01 -6.1803323130e+01 -2.9348170328e+02 3.3084720156e+02 1.2500000000e+02 0.0000e+00 0.0000e+00
<mgrwt>
<rscale>  0 0.33125879E+03</rscale>
<asrwt>0</asrwt>
<pdfrwt beam="1">  1        3 0.93613894E-02 0.33125879E+03</pdfrwt>
<pdfrwt beam="2">  1       -3 0.69359795E-01 0.33125879E+03</pdfrwt>
<totfact> 0.43069990E+02</totfact>
</mgrwt>
</event>
<event>
 8      1 +1.6198320e-01 4.15958800e+02 7.81860800e-03 1.03839000e-01
       -2 -1    0    0    0  501 -0.0000000000e+00 +0.0000000000e+00 +5.7941506171e+02 5.7941506172e+02 2.5500000000e-03 0.0000e+00 -1.0000e+00
        2 -1    0    0  501    0 +0.0000000000e+00 -0.0000000000e+00 -7.4653614694e+01 7.4653614738e+01 2.5500000000e-03 0.0000e+00 1.0000e+00
  1000101  2    1    2    0    0 -7.5152934138e+01 +9.1278519796e+01 +4.3592991745e+02 4.6868391185e+02 1.2509989853e+02 3.3082e+02 0.0000e+00
 -1000101  2    1    2    0    0 +7.5152934138e+01 -9.1278519796e+01 +6.8831529562e+01 1.8538476460e+02 1.2509995923e+02 1.5013e+02 0.0000e+00
       11  1    3    3    0    0 +2.9586262355e-02 -1.4016254539e-02 +2.1480830986e-02 3.9159794851e-02 5.1100000000e-04 0.0000e+00 1.0000e+00
      255  1    3    3    0    0 -7.5182520401e+01 +9.1292536050e+01 +4.3590843662e+02 4.6864475206e+02 1.2500000000e+02 0.0000e+00 0.0000e+00
      -11  1    4    4    0    0 -9.0719452777e-03 +2.9065608336e-02 -2.5747081917e-02 3.9878354132e-02 5.1100000000e-04 0.0000e+00 -1.0000e+00
      255  1    4    4    0    0 +7.5162006084e+01 -9.1307585404e+01 +6.8857276644e+01 1.8534488625e+02 1.2500000000e+02 0.0000e+00 0.0000e+00
<mgrwt>
<rscale>  0 0.41595879E+03</rscale>
<asrwt>0</asrwt>
<pdfrwt beam="1">  1        2 0.11485172E-01 0.41595879E+03</pdfrwt>
<pdfrwt beam="2">  1       -2 0.89140776E-01 0.41595879E+03</pdfrwt>
<totfact> 0.60635269E+02</totfact>
</mgrwt>
</event>
<event>
 8      1 +1.6198320e-01 4.19436200e+02 7.81860800e-03 1.03725000e-01
        2 -1    0    0  501    0 +0.0000000000e+00 +0.0000000000e+00 +8.0285058263e+02 8.0285058263e+02 2.5500000000e-03 0.0000e+00 -1.0000e+00
       -2 -1    0    0    0  501 -0.0000000000e+00 -0.0000000000e+00 -5.4781912094e+01 5.4781912153e+01 2.5500000000e-03 0.0000e+00 1.0000e+00
  1000101  2    1    2    0    0 +1.5179451323e+02 -3.0074309079e+01 +5.0944332761e+02 5.4692645857e+02 1.2509999490e+02 9.5710e+01 0.0000e+00
 -1000101  2    1    2    0    0 -1.5179451323e+02 +3.0074309079e+01 +2.3862534292e+02 3.1070603621e+02 1.2510055292e+02 6.1961e+01 0.0000e+00
       11  1    3    3    0    0 +8.7701924137e-02 -4.6829334855e-02 +9.1937674710e-02 1.3541569796e-01 5.1100000000e-04 0.0000e+00 1.0000e+00
      255  1    3    3    0    0 +1.5170681131e+02 -3.0027479744e+01 +5.0935138994e+02 5.4679104287e+02 1.2500000000e+02 0.0000e+00 0.0000e+00
      -11  1    4    4    0    0 -2.7417535325e-03 +5.7369967758e-04 +1.8036208940e-01 1.8038456352e-01 5.1100000000e-04 0.0000e+00 -1.0000e+00
      255  1    4    4    0    0 -1.5179177148e+02 +3.0073735379e+01 +2.3844498083e+02 3.1052565165e+02 1.2500000000e+02 0.0000e+00 0.0000e+00
<mgrwt>
<rscale>  0 0.41943624E+03</rscale>
<asrwt>0</asrwt>
<pdfrwt beam="1">  1        2 0.12351547E+00 0.41943624E+03</pdfrwt>
<pdfrwt beam="2">  1       -2 0.84279871E-02 0.41943624E+03</pdfrwt>
<totfact> 0.30907235E+03</totfact>
</mgrwt>
</event>
<event>
 8      1 +1.6198320e-01 2.69341100e+02 7.81860800e-03 1.10165700e-01
       -1 -1    0    0    0  501 -0.0000000000e+00 +0.0000000000e+00 +1.0265744557e+02 1.0265744569e+02 5.0400000000e-03 0.0000e+00 -1.0000e+00
        1 -1    0    0  501    0 +0.0000000000e+00 -0.0000000000e+00 -1.7666675703e+02 1.7666675710e+02 5.0400000000e-03 0.0000e+00 1.0000e+00
  1000101  2    1    2    0    0 -4.0038888217e+01 +2.9426021428e+01 -4.1298897011e+01 1.4079987293e+02 1.2509996809e+02 4.7917e+01 0.0000e+00
 -1000101  2    1    2    0    0 +4.0038888217e+01 -2.9426021428e+01 -3.2710414449e+01 1.3852432986e+02 1.2510002175e+02 1.8334e+02 0.0000e+00
       11  1    3    3    0    0 -9.0909751645e-02 +3.2984602666e-02 -1.2530465780e-01 1.5828482348e-01 5.1100000000e-04 0.0000e+00 1.0000e+00
      255  1    3    3    0    0 -3.9947978466e+01 +2.9393036826e+01 -4.1173592353e+01 1.4064158810e+02 1.2500000000e+02 0.0000e+00 0.0000e+00
      -11  1    4    4    0    0 -3.0998940397e-02 -5.6836792325e-03 +6.0531616516e-02 6.8246437522e-02 5.1100000000e-04 0.0000e+00 -1.0000e+00
      255  1    4    4    0    0 +4.0069887158e+01 -2.9420337749e+01 -3.2770946066e+01 1.3845608342e+02 1.2500000000e+02 0.0000e+00 0.0000e+00
<mgrwt>
<rscale>  0 0.26934111E+03</rscale>
<asrwt>0</asrwt>
<pdfrwt beam="1">  1        1 0.27179501E-01 0.26934111E+03</pdfrwt>
<pdfrwt beam="2">  1       -1 0.15793453E-01 0.26934111E+03</pdfrwt>
<totfact> 0.50439849E+03</totfact>
</mgrwt>
</event>
<event>
 8      1 +1.6198320e-01 3.54451200e+02 7.81860800e-03 1.06080300e-01
       -2 -1    0    0    0  501 -0.0000000000e+00 +0.0000000000e+00 +3.0449190804e+01 3.0449190911e+01 2.5500000000e-03 0.0000e+00 -1.0000e+00
        2 -1    0    0  501    0 +0.0000000000e+00 -0.0000000000e+00 -1.0315189672e+03 1.0315189672e+03 2.5500000000e-03 0.0000e+00 1.0000e+00
  1000101  2    1    2    0    0 -6.6587253972e+01 -1.0596449744e+02 -4.7108919714e+02 5.0322693814e+02 1.2509989008e+02 3.8703e+00 0.0000e+00
 -1000101  2    1    2    0    0 +6.6587253972e+01 +1.0596449744e+02 -5.2998057921e+02 5.5874121993e+02 1.2509995762e+02 2.4861e+02 0.0000e+00
       11  1    3    3    0    0 -3.0875572733e-02 -9.2495010866e-02 -6.4239496322e-01 6.4975393644e-01 5.1100000000e-04 0.0000e+00 1.0000e+00
      255  1    3    3    0    0 -6.6556378399e+01 -1.0587200243e+02 -4.7044680217e+02 5.0257718420e+02 1.2500000000e+02 0.0000e+00 0.0000e+00
      -11  1    4    4    0    0 -4.8573535322e-02 -5.3886553448e-03 -1.3123902242e-01 1.4004416470e-01 5.1100000000e-04 0.0000e+00 -1.0000e+00
      255  1    4    4    0    0 +6.6635827507e+01 +1.0596988610e+02 -5.2984934019e+02 5.5860117576e+02 1.2500000000e+02 0.0000e+00 0.0000e+00
<mgrwt>
<rscale>  0 0.35445123E+03</rscale>
<asrwt>0</asrwt>
<pdfrwt beam="1">  1        2 0.15869520E+00 0.35445123E+03</pdfrwt>
<pdfrwt beam="2">  1       -2 0.46844917E-02 0.35445123E+03</pdfrwt>
<totfact> 0.54537994E+03</totfact>
</mgrwt>
</event>
<event>
 8      1 +1.6198320e-01 2.80626800e+02 7.81860800e-03 1.09534700e-01
       -2 -1    0    0    0  501 -0.0000000000e+00 +0.0000000000e+00 +1.3412269054e+01 1.3412269296e+01 2.5500000000e-03 0.0000e+00 -1.0000e+00
        2 -1    0    0  501    0 +0.0000000000e+00 -0.0000000000e+00 -1.4678988940e+03 1.4678988940e+03 2.5500000000e-03 0.0000e+00 1.0000e+00
  1000101  2    1    2    0    0 -4.5724782673e+01 -4.3896210183e+01 -7.0351118407e+02 7.1735321876e+02 1.2510004534e+02 3.9636e+01 0.0000e+00
 -1000101  2    1    2    0    0 +4.5724782673e+01 +4.3896210183e+01 -7.5097544088e+02 7.6395794454e+02 1.2509994082e+02 6.9111e+01 0.0000e+00
       11  1    3    3    0    0 -4.6793246664e-02 -8.8015944498e-02 -1.1049588356e+00 1.1094461249e+00 5.1100000000e-04 0.0000e+00 1.0000e+00
      255  1    3    3    0    0 -4.5677989426e+01 -4.3808194238e+01 -7.0240622523e+02 7.1624377264e+02 1.2500000000e+02 0.0000e+00 0.0000e+00
      -11  1    4    4    0    0 +6.9280517861e-02 -1.0605001679e-02 -1.3003433754e-01 1.4772083901e-01 5.1100000000e-04 0.0000e+00 -1.0000e+00
      255  1    4    4    0    0 +4.5655502155e+01 +4.3906815184e+01 -7.5084540655e+02 7.6381022370e+02 1.2500000000e+02 0.0000e+00 0.0000e+00
<mgrwt>
<rscale>  0 0.28062683E+03</rscale>
<asrwt>0</asrwt>
<pdfrwt beam="1">  1        2 0.22583047E+00 0.28062683E+03</pdfrwt>
<pdfrwt beam="2">  1       -2 0.20634272E-02 0.28062683E+03</pdfrwt>
<totfact> 0.10486297E+04</totfact>
</mgrwt>
</event>
<event>
 8      1 +1.6198320e-01 3.37802800e+02 7.81860800e-03 1.06773600e-01
       -2 -1    0    0    0  501 -0.0000000000e+00 +0.0000000000e+00 +8.1797969577e+01 8.1797969617e+01 2.5500000000e-03 0.0000e+00 -1.0000e+00
        2 -1    0    0  501    0 +0.0000000000e+00 -0.0000000000e+00 -3.4875784763e+02 3.4875784764e+02 2.5500000000e-03 0.0000e+00 1.0000e+00
  1000101  2    1    2    0    0 +6.1165421829e+01 -3.7500372179e+01 -2.4554264552e+02 2.8476078568e+02 1.2510007015e+02 1.4850e+02 0.0000e+00
 -1000101  2    1    2    0    0 -6.1165421829e+01 +3.7500372179e+01 -2.1417232527e+01 1.4579503157e+02 1.2509998657e+02 7.0764e+01 0.0000e+00
       11  1    3    3    0    0 +8.5082469531e-02 +3.1621289026e-02 -3.3343560431e-01 3.4556981333e-01 5.1100000000e-04 0.0000e+00 1.0000e+00
      255  1    3    3    0    0 +6.1080339359e+01 -3.7531993468e+01 -2.4520920992e+02 2.8441521587e+02 1.2500000000e+02 0.0000e+00 0.0000e+00
      -11  1    4    4    0    0 -1.0830212618e-02 -2.9070924464e-02 +6.6191185227e-02 7.3102300086e-02 5.1100000000e-04 0.0000e+00 -1.0000e+00
      255  1    4    4    0    0 -6.1154591616e+01 +3.7529443104e+01 -2.1483423712e+01 1.4572192927e+02 1.2500000000e+02 0.0000e+00 0.0000e+00
<mgrwt>
<rscale>  0 0.33780281E+03</rscale>
<asrwt>0</asrwt>
<pdfrwt beam="1">  1        2 0.53655052E-01 0.33780281E+03</pdfrwt>
<pdfrwt beam="2">  1       -2 0.12584303E-01 0.33780281E+03</pdfrwt>
<totfact> 0.42544282E+03</totfact>
</mgrwt>
</event>
<event>
 8      1 +1.6198320e-01 3.41671600e+02 7.81860800e-03 1.06608600e-01
        2 -1    0    0  501    0 +0.0000000000e+00 +0.0000000000e+00 +1.1079471038e+03 1.1079471038e+03 2.5500000000e-03 0.0000e+00 1.0000e+00
       -2 -1    0    0    0  501 -0.0000000000e+00 -0.0000000000e+00 -2.6341400201e+01 2.6341400325e+01 2.5500000000e-03 0.0000e+00 -1.0000e+00
  1000101  2    1    2    0    0 +5.1689708735e+01 -3.3105438645e+01 +8.6889475475e+02 8.7999771293e+02 1.2510029529e+02 2.7460e+02 0.0000e+00
 -1000101  2    1    2    0    0 -5.1689708735e+01 +3.3105438645e+01 +2.1271094890e+02 2.5429079124e+02 1.2510021052e+02 1.0435e+02 0.0000e+00
       11  1    3    3    0    0 -4.9969151051e-02 -6.6634206277e-04 +7.7066147939e-01 7.7228021922e-01 5.1100000000e-04 0.0000e+00 1.0000e+00
      255  1    3    3    0    0 +5.1739677887e+01 -3.3104772303e+01 +8.6812409327e+02 8.7922543271e+02 1.2500000000e+02 0.0000e+00 0.0000e+00
      -11  1    4    4    0    0 -1.3975342618e-01 +3.5739035525e-02 +1.5260841948e-01 2.0999497519e-01 5.1100000000e-04 0.0000e+00 -1.0000e+00
      255  1    4    4    0    0 -5.1549955309e+01 +3.3069699610e+01 +2.1255834048e+02 2.5408079627e+02 1.2500000000e+02 0.0000e+00 0.0000e+00
<mgrwt>
<rscale>  0 0.34167164E+03</rscale>
<asrwt>0</asrwt>
<pdfrwt beam="1">  1        2 0.17045337E+00 0.34167164E+03</pdfrwt>
<pdfrwt beam="2">  1       -2 0.40525237E-02 0.34167164E+03</pdfrwt>
<totfact> 0.61130321E+03</totfact>
</mgrwt>
</event>
<event>
 8      1 +1.6198320e-01 2.95446600e+02 7.81860800e-03 1.08753900e-01
        4 -1    0    0  501    0 +0.0000000000e+00 +0.0000000000e+00 +9.1313919209e+02 9.1314007525e+02 1.2700000000e+00 0.0000e+00 1.0000e+00
       -4 -1    0    0    0  501 -0.0000000000e+00 -0.0000000000e+00 -2.3880197446e+01 2.3913944260e+01 1.2700000000e+00 0.0000e+00 -1.0000e+00
  1000101  2    1    2    0    0 +3.5728071258e+01 -6.7657204925e+01 +3.8805609478e+02 4.1483916576e+02 1.2509999321e+02 3.1368e+01 0.0000e+00
 -1000101  2    1    2    0    0 -3.5728071258e+01 +6.7657204925e+01 +5.0120289986e+02 5.2221485375e+02 1.2510001675e+02 1.3792e+02 0.0000e+00
       11  1    3    3    0    0 +8.3238705710e-03 +4.0971780885e-02 +2.7874177147e-02 5.0251413154e-02 5.1100000000e-04 0.0000e+00 1.0000e+00
      255  1    3    3    0    0 +3.5719747388e+01 -6.7698176706e+01 +3.8802822060e+02 4.1478891435e+02 1.2500000000e+02 0.0000e+00 0.0000e+00
      -11  1    4    4    0    0 +5.4676993614e-02 +1.0425093391e-01 +3.2625096512e-01 3.4683970968e-01 5.1100000000e-04 0.0000e+00 -1.0000e+00
      255  1    4    4    0    0 -3.5782748252e+01 +6.7552953991e+01 +5.0087664890e+02 5.2186801404e+02 1.2500000000e+02 0.0000e+00 0.0000e+00
<mgrwt>
<rscale>  0 0.29544657E+03</rscale>
<asrwt>0</asrwt>
<pdfrwt beam="1">  1        4 0.14048562E+00 0.29544657E+03</pdfrwt>
<pdfrwt beam="2">  1       -4 0.36765403E-02 0.29544657E+03</pdfrwt>
<totfact> 0.27574804E+02</totfact>
</mgrwt>
</event>
<event>
 8      1 +1.6198320e-01 4.63333100e+02 7.81860800e-03 1.02381900e-01
        2 -1    0    0  501    0 +0.0000000000e+00 +0.0000000000e+00 +4.8757864749e+02 4.8757864749e+02 2.5500000000e-03 0.0000e+00 1.0000e+00
       -2 -1    0    0    0  501 -0.0000000000e+00 -0.0000000000e+00 -1.1007331184e+02 1.1007331187e+02 2.5500000000e-03 0.0000e+00 -1.0000e+00
  1000101  2    1    2    0    0 +1.0157406165e+01 +1.2735137361e+02 +3.7875686305e+02 4.1884173187e+02 1.2510031889e+02 6.4464e+01 0.0000e+00
 -1000101  2    1    2    0    0 -1.0157406165e+01 -1.2735137361e+02 -1.2515274050e+00 1.7881022750e+02 1.2509990360e+02 6.5517e+01 0.0000e+00
       11  1    3    3    0    0 +1.0103428683e-01 +5.5187703911e-02 +2.5406279771e-01 2.7892969737e-01 5.1100000000e-04 0.0000e+00 1.0000e+00
      255  1    3    3    0    0 +1.0056371878e+01 +1.2729618590e+02 +3.7850280025e+02 4.1856280217e+02 1.2500000000e+02 0.0000e+00 0.0000e+00
      -11  1    4    4    0    0 -5.0337471386e-02 +1.7472183322e-02 -2.8614148859e-02 6.0482797983e-02 5.1100000000e-04 0.0000e+00 -1.0000e+00
      255  1    4    4    0    0 -1.0107068694e+01 -1.2736884579e+02 -1.2229132562e+00 1.7874974471e+02 1.2500000000e+02 0.0000e+00 0.0000e+00
<mgrwt>
<rscale>  0 0.46333313E+03</rscale>
<asrwt>0</asrwt>
<pdfrwt beam="1">  1        2 0.75012100E-01 0.46333313E+03</pdfrwt>
<pdfrwt beam="2">  1       -2 0.16934356E-01 0.46333313E+03</pdfrwt>
<totfact> 0.17992628E+03</totfact>
</mgrwt>
</event>
<event>
 8      1 +1.6198320e-01 5.02397700e+02 7.81860800e-03 1.01315500e-01
       -1 -1    0    0    0  501 -0.0000000000e+00 +0.0000000000e+00 +8.7874714320e+02 8.7874714321e+02 5.0400000000e-03 0.0000e+00 -1.0000e+00
        1 -1    0    0  501    0 +0.0000000000e+00 -0.0000000000e+00 -7.1807748415e+01 7.1807748592e+01 5.0400000000e-03 0.0000e+00 1.0000e+00
  1000101  2    1    2    0    0 +1.0617844895e+02 -1.7592997119e+02 +5.4024244896e+02 5.9138577692e+02 1.2510002280e+02 3.7595e+01 0.0000e+00
 -1000101  2    1    2    0    0 -1.0617844895e+02 +1.7592997119e+02 +2.6669694582e+02 3.5916911488e+02 1.2509985766e+02 1.9589e+01 0.0000e+00
       11  1    3    3    0    0 -4.0153282722e-02 -4.9016855595e-02 +2.3124571995e-01 2.3977026997e-01 5.1100000000e-04 0.0000e+00 1.0000e+00
      255  1    3    3    0    0 +1.0621860224e+02 -1.7588095434e+02 +5.4001120324e+02 5.9114600665e+02 1.2500000000e+02 0.0000e+00 0.0000e+00
      -11  1    4    4    0    0 +2.9212609595e-02 +6.6884369216e-02 +1.7067007092e-01 1.8562173804e-01 5.1100000000e-04 0.0000e+00 -1.0000e+00
      255  1    4    4    0    0 -1.0620766156e+02 +1.7586308682e+02 +2.6652627575e+02 3.5898349314e+02 1.2500000000e+02 0.0000e+00 0.0000e+00
<mgrwt>
<rscale>  0 0.50239767E+03</rscale>
<asrwt>0</asrwt>
<pdfrwt beam="1">  1        1 0.11047345E-01 0.50239767E+03</pdfrwt>
<pdfrwt beam="2">  1       -1 0.13519188E+00 0.50239767E+03</pdfrwt>
<totfact> 0.27465967E+02</totfact>
</mgrwt>
</event>
<event>
 8      1 +1.6198320e-01 3.14447300e+02 7.81860800e-03 1.07823400e-01
       -2 -1    0    0    0  501 -0.0000000000e+00 +0.0000000000e+00 +1.1320729941e+01 1.1320730228e+01 2.5500000000e-03 0.0000e+00 -1.0000e+00
        2 -1    0    0  501    0 +0.0000000000e+00 -0.0000000000e+00 -2.1835405364e+03 2.1835405364e+03 2.5500000000e-03 0.0000e+00 1.0000e+00
  1000101  2    1    2    0    0 +6.2924955052e+00 +4.3757225896e+01 -4.9733791918e+02 5.1473223337e+02 1.2509986371e+02 5.1564e+01 0.0000e+00
 -1000101  2    1    2    0    0 -6.2924955052e+00 -4.3757225896e+01 -1.6748818873e+03 1.6801290332e+03 1.2509972719e+02 1.9255e+01 0.0000e+00
       11  1    3    3    0    0 +6.0910903561e-02 -3.8274073613e-02 -1.4518550427e-01 1.6203127678e-01 5.1100000000e-04 0.0000e+00 1.0000e+00
      255  1    3    3    0    0 +6.2315846017e+00 +4.3795499969e+01 -4.9719273367e+02 5.1457020209e+02 1.2500000000e+02 0.0000e+00 0.0000e+00
      -11  1    4    4    0    0 -2.3787066208e-02 +5.3726174113e-03 -3.7375262629e-02 4.4630269044e-02 5.1100000000e-04 0.0000e+00 -1.0000e+00
      255  1    4    4    0    0 -6.2687084390e+00 -4.3762598513e+01 -1.6748445120e+03 1.6800844030e+03 1.2500000000e+02 0.0000e+00 0.0000e+00
<mgrwt>
<rscale>  0 0.31444728E+03</rscale>
<asrwt>0</asrwt>
<pdfrwt beam="1">  1        2 0.33592898E+00 0.31444728E+03</pdfrwt>
<pdfrwt beam="2">  1       -2 0.17416525E-02 0.31444728E+03</pdfrwt>
<totfact> 0.56290288E+03</totfact>
</mgrwt>
</event>
<event>
 8      1 +1.6198320e-01 2.56092000e+02 7.81860800e-03 1.10951400e-01
       -2 -1    0    0    0  501 -0.0000000000e+00 +0.0000000000e+00 +8.8709467658e+00 8.8709471323e+00 2.5500000000e-03 0.0000e+00 -1.0000e+00
        2 -1    0    0  501    0 +0.0000000000e+00 -0.0000000000e+00 -1.8482558731e+03 1.8482558731e+03 2.5500000000e-03 0.0000e+00 1.0000e+00
  1000101  2    1    2    0    0 -3.1361599148e-01 +2.4804805128e+01 -1.0025086936e+03 1.0105884808e+03 1.2510004016e+02 4.8377e+02 0.0000e+00
 -1000101  2    1    2    0    0 +3.1361599148e-01 -2.4804805128e+01 -8.3687623273e+02 8.4653833944e+02 1.2509977826e+02 6.2035e+01 0.0000e+00
       11  1    3    3    0    0 +7.4002699369e-02 +1.9419352850e-02 -2.6857295613e-01 2.7925831172e-01 5.1100000000e-04 0.0000e+00 1.0000e+00
      255  1    3    3    0    0 -3.8761869085e-01 +2.4785385775e+01 -1.0022401206e+03 1.0103092224e+03 1.2500000000e+02 0.0000e+00 0.0000e+00
      -11  1    4    4    0    0 +9.0283195044e-02 +2.3816299778e-02 -5.9267666211e-01 5.9998679850e-01 5.1100000000e-04 0.0000e+00 -1.0000e+00
      255  1    4    4    0    0 +2.2333279644e-01 -2.4828621428e+01 -8.3628355607e+02 8.4593835264e+02 1.2500000000e+02 0.0000e+00 0.0000e+00
<mgrwt>
<rscale>  0 0.25609201E+03</rscale>
<asrwt>0</asrwt>
<pdfrwt beam="1">  1        2 0.28434675E+00 0.25609201E+03</pdfrwt>
<pdfrwt beam="2">  1       -2 0.13647625E-02 0.25609201E+03</pdfrwt>
<totfact> 0.12074474E+04</totfact>
</mgrwt>
</event>
<event>
 8      1 +1.6198320e-01 2.64299100e+02 7.81860800e-03 1.10458700e-01
        2 -1    0    0  501    0 +0.0000000000e+00 +0.0000000000e+00 +1.2605667353e+02 1.2605667356e+02 2.5500000000e-03 0.0000e+00 1.0000e+00
       -2 -1    0    0    0  501 -0.0000000000e+00 -0.0000000000e+00 -1.3853693783e+02 1.3853693785e+02 2.5500000000e-03 0.0000e+00 -1.0000e+00
  1000101  2    1    2    0    0 +3.3971772581e+00 +1.7398092104e+01 -4.5003963355e+01 1.3412500940e+02 1.2509966829e+02 2.1296e+01 0.0000e+00
 -1000101  2    1    2    0    0 -3.3971772581e+00 -1.7398092104e+01 +3.2523699058e+01 1.3046860201e+02 1.2510008269e+02 2.6170e+01 0.0000e+00
       11  1    3    3    0    0 +2.5235096853e-02 -8.2428756559e-02 -4.9945843895e-02 9.9630108221e-02 5.1100000000e-04 0.0000e+00 1.0000e+00
      255  1    3    3    0    0 +3.3719421613e+00 +1.7480520861e+01 -4.4954017511e+01 1.3402537929e+02 1.2500000000e+02 0.0000e+00 0.0000e+00
      -11  1    4    4    0    0 -8.7191780444e-02 +3.5638731418e-02 +4.6437264549e-02 1.0502002863e-01 5.1100000000e-04 0.0000e+00 -1.0000e+00
      255  1    4    4    0    0 -3.3099854777e+00 -1.7433730836e+01 +3.2477261793e+01 1.3036358199e+02 1.2500000000e+02 0.0000e+00 0.0000e+00
<mgrwt>
<rscale>  0 0.26429912E+03</rscale>
<asrwt>0</asrwt>
<pdfrwt beam="1">  1        2 0.19393334E-01 0.26429912E+03</pdfrwt>
<pdfrwt beam="2">  1       -2 0.21313375E-01 0.26429912E+03</pdfrwt>
<totfact> 0.53676021E+03</totfact>
</mgrwt>
</event>
<event>
 8      1 +1.6198320e-01 2.59165800e+02 7.81860800e-03 1.10764500e-01
        2 -1    0    0  501    0 +0.0000000000e+00 +0.0000000000e+00 +4.8917583994e+02 4.8917583994e+02 2.5500000000e-03 0.0000e+00 1.0000e+00
       -2 -1    0    0    0  501 -0.0000000000e+00 -0.0000000000e+00 -3.4326562334e+01 3.4326562428e+01 2.5500000000e-03 0.0000e+00 -1.0000e+00
  1000101  2    1    2    0    0 +1.7958352126e+00 -2.6193019414e+01 +2.7038972576e+02 2.9908174749e+02 1.2509991445e+02 1.2736e+02 0.0000e+00
 -1000101  2    1    2    0    0 -1.7958352126e+00 +2.6193019414e+01 +1.8445955184e+02 2.2442065488e+02 1.2509997914e+02 1.0960e+02 0.0000e+00
       11  1    3    3    0    0 -3.1307876042e-02 +1.8992951812e-02 +3.9866728327e-01 4.0034582450e-01 5.1100000000e-04 0.0000e+00 1.0000e+00
      255  1    3    3    0    0 +1.8271430887e+00 -2.6212012366e+01 +2.6999105848e+02 2.9868140167e+02 1.2500000000e+02 0.0000e+00 0.0000e+00
      -11  1    4    4    0    0 +4.1533691110e-02 -7.1320484494e-02 +1.2543537631e-01 1.5015310106e-01 5.1100000000e-04 0.0000e+00 -1.0000e+00
      255  1    4    4    0    0 -1.8373689037e+00 +2.6264339899e+01 +1.8433411647e+02 2.2427050178e+02 1.2500000000e+02 0.0000e+00 0.0000e+00
<mgrwt>
<rscale>  0 0.25916578E+03</rscale>
<asrwt>0</asrwt>
<pdfrwt beam="1">  1        2 0.75257814E-01 0.25916578E+03</pdfrwt>
<pdfrwt beam="2">  1       -2 0.52810101E-02 0.25916578E+03</pdfrwt>
<totfact> 0.11384133E+04</totfact>
</mgrwt>
</event>
<event>
 8      1 +1.6198320e-01 2.76314600e+02 7.81860800e-03 1.09771900e-01
        2 -1    0    0  501    0 +0.0000000000e+00 +0.0000000000e+00 +1.9390179817e+02 1.9390179819e+02 2.5500000000e-03 0.0000e+00 1.0000e+00
       -2 -1    0    0    0  501 -0.0000000000e+00 -0.0000000000e+00 -9.8438721861e+01 9.8438721894e+01 2.5500000000e-03 0.0000e+00 -1.0000e+00
  1000101  2    1    2    0    0 -1.3127641948e+01 +5.0717179084e+01 +7.5580892187e+01 1.5526443312e+02 1.2509998278e+02 3.5111e+02 0.0000e+00
 -1000101  2    1    2    0    0 +1.3127641948e+01 -5.0717179084e+01 +1.9882184126e+01 1.3707608697e+02 1.2509990062e+02 1.9472e+01 0.0000e+00
       11  1    3    3    0    0 -1.9749978760e-02 -6.5852610552e-02 +2.7296887245e-02 7.3973029894e-02 5.1100000000e-04 0.0000e+00 1.0000e+00
      255  1    3    3    0    0 -1.3107891969e+01 +5.0783031695e+01 +7.5553595300e+01 1.5519046009e+02 1.2500000000e+02 0.0000e+00 0.0000e+00
      -11  1    4    4    0    0 +9.3001913431e-02 -9.0008456311e-02 +5.7733785101e-02 1.4171919127e-01 5.1100000000e-04 0.0000e+00 -1.0000e+00
      255  1    4    4    0    0 +1.3034640034e+01 -5.0627170628e+01 +1.9824450341e+01 1.3693436778e+02 1.2500000000e+02 0.0000e+00 0.0000e+00
<mgrwt>
<rscale>  0 0.27631464E+03</rscale>
<asrwt>0</asrwt>
<pdfrwt beam="1">  1        2 0.29831046E-01 0.27631464E+03</pdfrwt>
<pdfrwt beam="2">  1       -2 0.15144419E-01 0.27631464E+03</pdfrwt>
<totfact> 0.59027165E+03</totfact>
</mgrwt>
</event>
<event>
 8      1 +1.6198320e-01 3.13797400e+02 7.81860800e-03 1.07854000e-01
       -2 -1    0    0    0  501 -0.0000000000e+00 +0.0000000000e+00 +5.7188284488e+01 5.7188284545e+01 2.5500000000e-03 0.0000e+00 -1.0000e+00
        2 -1    0    0  501    0 +0.0000000000e+00 -0.0000000000e+00 -4.3045880649e+02 4.3045880650e+02 2.5500000000e-03 0.0000e+00 1.0000e+00
  1000101  2    1    2    0    0 +1.2869982133e+01 +4.8631275580e+00 -3.3223201415e+02 3.5527089630e+02 1.2510000831e+02 1.7171e+02 0.0000e+00
 -1000101  2    1    2    0    0 -1.2869982133e+01 -4.8631275580e+00 -4.1038507851e+01 1.3237619474e+02 1.2510000543e+02 4.8336e+00 0.0000e+00
       11  1    3    3    0    0 +5.8950674588e-02 -5.6074843446e-02 -4.5186302964e-01 4.5912964267e-01 5.1100000000e-04 0.0000e+00 1.0000e+00
      255  1    3    3    0    0 +1.2811031458e+01 +4.9192024014e+00 -3.3178015112e+02 3.5481176665e+02 1.2500000000e+02 0.0000e+00 0.0000e+00
      -11  1    4    4    0    0 +8.2106168326e-02 -3.3766068579e-02 -3.6295193967e-03 8.8853839516e-02 5.1100000000e-04 0.0000e+00 -1.0000e+00
      255  1    4    4    0    0 -1.2952088301e+01 -4.8293614894e+00 -4.1034878332e+01 1.3228734090e+02 1.2500000000e+02 0.0000e+00 0.0000e+00
<mgrwt>
<rscale>  0 0.31379739E+03</rscale>
<asrwt>0</asrwt>
<pdfrwt beam="1">  1        2 0.66224430E-01 0.31379739E+03</pdfrwt>
<pdfrwt beam="2">  1       -2 0.87981979E-02 0.31379739E+03</pdfrwt>
<totfact> 0.59897735E+03</totfact>
</mgrwt>
</event>
<event>
 8      1 +1.6198320e-01 2.91175200e+02 7.81860800e-03 1.08973700e-01
        3 -1    0    0  501    0 +0.0000000000e+00 +0.0000000000e+00 +8.9376283906e+02 8.9376284477e+02 1.0100000000e-01 0.0000e+00 1.0000e+00
       -3 -1    0    0    0  501 -0.0000000000e+00 -0.0000000000e+00 -2.3715071191e+01 2.3715286264e+01 1.0100000000e-01 0.0000e+00 -1.0000e+00
  1000101  2    1    2    0    0 +6.5752406562e+01 +3.2042687280e+01 +3.9095292730e+02 4.1694644624e+02 1.2510009948e+02 1.1511e+02 0.0000e+00
 -1000101  2    1    2    0    0 -6.5752406562e+01 -3.2042687280e+01 +4.7909484057e+02 5.0053168479e+02 1.2509991384e+02 1.0871e+01 0.0000e+00
       11  1    3    3    0    0 -4.6694136523e-02 +7.9998946790e-03 +3.1679399448e-01 3.2031708784e-01 5.1100000000e-04 0.0000e+00 1.0000e+00
      255  1    3    3    0    0 +6.5799100698e+01 +3.2034687385e+01 +3.9063613331e+02 4.1662612915e+02 1.2500000000e+02 0.0000e+00 0.0000e+00
      -11  1    4    4    0    0 -1.3792485060e-01 +3.1937207768e-02 +4.9201752150e-01 5.1198120301e-01 5.1100000000e-04 0.0000e+00 -1.0000e+00
      255  1    4    4    0    0 -6.5614481711e+01 -3.2074624487e+01 +4.7860282305e+02 5.0001970359e+02 1.2500000000e+02 0.0000e+00 0.0000e+00
<mgrwt>
<rscale>  0 0.29117521E+03</rscale>
<asrwt>0</asrwt>
<pdfrwt beam="1">  1        3 0.13750201E+00 0.29117521E+03</pdfrwt>
<pdfrwt beam="2">  1       -3 0.36484891E-02 0.29117521E+03</pdfrwt>
<totfact> 0.40751698E+02</totfact>
</mgrwt>
</event>
<event>
 8      1 +1.6198320e-01 7.19557000e+02 7.81860800e-03 9.68435900e-02
        2 -1    0    0  501    0 +0.0000000000e+00 +0.0000000000e+00 +5.2568408734e+02 5.2568408735e+02 2.5500000000e-03 0.0000e+00 1.0000e+00
       -2 -1    0    0    0  501 -0.0000000000e+00 -0.0000000000e+00 -2.4623264144e+02 2.4623264146e+02 2.5500000000e-03 0.0000e+00 -1.0000e+00
  1000101  2    1    2    0    0 -1.6158362994e+02 +2.6351819650e+02 +2.8460665866e+02 4.3840854645e+02 1.2509993644e+02 1.9426e+02 0.0000e+00
 -1000101  2    1    2    0    0 +1.6158362994e+02 -2.6351819650e+02 -5.1552127608e+00 3.3350818235e+02 1.2510004847e+02 2.0370e+02 0.0000e+00
       11  1    3    3    0    0 -1.7726946814e-01 +2.2902765297e-01 +1.3674445195e-01 3.2027712441e-01 5.1100000000e-04 0.0000e+00 1.0000e+00
      255  1    3    3    0    0 -1.6140636047e+02 +2.6328916885e+02 +2.8446991421e+02 4.3808826933e+02 1.2500000000e+02 0.0000e+00 0.0000e+00
      -11  1    4    4    0    0 +5.4452210183e-02 -1.8564965714e-01 -8.6484857232e-02 2.1192151859e-01 5.1100000000e-04 0.0000e+00 -1.0000e+00
      255  1    4    4    0    0 +1.6152917773e+02 -2.6333254684e+02 -5.0687279035e+00 3.3329626084e+02 1.2500000000e+02 0.0000e+00 0.0000e+00
<mgrwt>
<rscale>  0 0.71955703E+03</rscale>
<asrwt>0</asrwt>
<pdfrwt beam="1">  1        2 0.80874476E-01 0.71955703E+03</pdfrwt>
<pdfrwt beam="2">  1       -2 0.37881945E-01 0.71955703E+03</pdfrwt>
<totfact> 0.38473908E+02</totfact>
</mgrwt>
</event>
<event>
 8      1 +1.6198320e-01 2.98495700e+02 7.81860800e-03 1.08599500e-01
        2 -1    0    0  501    0 +0.0000000000e+00 +0.0000000000e+00 +3.1718420430e+01 3.1718420533e+01 2.5500000000e-03 0.0000e+00 1.0000e+00
       -2 -1    0    0    0  501 -0.0000000000e+00 -0.0000000000e+00 -7.0227076934e+02 7.0227076935e+02 2.5500000000e-03 0.0000e+00 -1.0000e+00
  1000101  2    1    2    0    0 -4.9590531058e+01 -8.3128182076e+00 -1.7789074157e+02 2.2321157146e+02 1.2509982407e+02 8.4271e+01 0.0000e+00
 -1000101  2    1    2    0    0 +4.9590531058e+01 +8.3128182076e+00 -4.9266160734e+02 5.1077761841e+02 1.2509992969e+02 4.2938e+01 0.0000e+00
       11  1    3    3    0    0 -5.2643692369e-02 +9.1598588126e-02 -1.2081237331e-01 1.6049158968e-01 5.1100000000e-04 0.0000e+00 1.0000e+00
      255  1    3    3    0    0 -4.9537887365e+01 -8.4044167957e+00 -1.7776992920e+02 2.2305107987e+02 1.2500000000e+02 0.0000e+00 0.0000e+00
      -11  1    4    4    0    0 -2.8342454806e-03 +9.5855192533e-02 -2.8872206906e-01 3.0423172939e-01 5.1100000000e-04 0.0000e+00 -1.0000e+00
      255  1    4    4    0    0 +4.9593365303e+01 +8.2169630151e+00 -4.9237288527e+02 5.1047338668e+02 1.2500000000e+02 0.0000e+00 0.0000e+00
<mgrwt>
<rscale>  0 0.29849569E+03</rscale>
<asrwt>0</asrwt>
<pdfrwt beam="1">  1        2 0.48797575E-02 0.29849569E+03</pdfrwt>
<pdfrwt beam="2">  1       -2 0.10804165E+00 0.29849569E+03</pdfrwt>
<totfact> 0.11629426E+03</totfact>
</mgrwt>
</event>
<event>
 8      1 +1.6198320e-01 2.60778400e+02 7.81860800e-03 1.10667600e-01
        2 -1    0    0  501    0 +0.0000000000e+00 +0.0000000000e+00 +4.6544949739e+02 4.6544949740e+02 2.5500000000e-03 0.0000e+00 1.0000e+00
       -2 -1    0    0    0  501 -0.0000000000e+00 -0.0000000000e+00 -3.6526711744e+01 3.6526711833e+01 2.5500000000e-03 0.0000e+00 -1.0000e+00
  1000101  2    1    2    0    0 +1.0187310431e+01 -3.3788114219e+01 +2.3427064555e+02 2.6791453536e+02 1.2510013961e+02 5.9122e+01 0.0000e+00
 -1000101  2    1    2    0    0 -1.0187310431e+01 +3.3788114219e+01 +1.9465214010e+02 2.3406167388e+02 1.2509993436e+02 5.2831e+01 0.0000e+00
       11  1    3    3    0    0 +5.3162169841e-02 +4.3639220119e-03 +3.5190860765e-01 3.5592862961e-01 5.1100000000e-04 0.0000e+00 1.0000e+00
      255  1    3    3    0    0 +1.0134148262e+01 -3.3792478141e+01 +2.3391873694e+02 2.6755860673e+02 1.2500000000e+02 0.0000e+00 0.0000e+00
      -11  1    4    4    0    0 -1.0100540190e-01 -7.6714542087e-03 +1.3035898177e-01 1.6508987756e-01 5.1100000000e-04 0.0000e+00 -1.0000e+00
      255  1    4    4    0    0 -1.0086305030e+01 +3.3795785674e+01 +1.9452178112e+02 2.3389658400e+02 1.2500000000e+02 0.0000e+00 0.0000e+00
<mgrwt>
<rscale>  0 0.26077837E+03</rscale>
<asrwt>0</asrwt>
<pdfrwt beam="1">  1        2 0.71607614E-01 0.26077837E+03</pdfrwt>
<pdfrwt beam="2">  1       -2 0.56194942E-02 0.26077837E+03</pdfrwt>
<totfact> 0.10945207E+04</totfact>
</mgrwt>
</event>
<event>
 8      1 +1.6198320e-01 2.81818000e+02 7.81860800e-03 1.09470000e-01
       -1 -1    0    0    0  501 -0.0000000000e+00 +0.0000000000e+00 +7.2238539566e+01 7.2238539742e+01 5.0400000000e-03 0.0000e+00 1.0000e+00
        1 -1    0    0  501    0 +0.0000000000e+00 -0.0000000000e+00 -2.7485801165e+02 2.7485801170e+02 5.0400000000e-03 0.0000e+00 -1.0000e+00
  1000101  2    1    2    0    0 +4.6501082707e+01 -3.9511459377e+01 -7.4274893130e+01 1.5776656128e+02 1.2510004794e+02 1.2040e+01 0.0000e+00
 -1000101  2    1    2    0    0 -4.6501082707e+01 +3.9511459377e+01 -1.2834457895e+02 1.8932999015e+02 1.2509999244e+02 7.2087e+01 0.0000e+00
       11  1    3    3    0    0 -2.7203401534e-02 +2.3089203804e-03 +4.2636964408e-02 5.0631294899e-02 5.1100000000e-04 0.0000e+00 1.0000e+00
      255  1    3    3    0    0 +4.6528286108e+01 -3.9513768297e+01 -7.4317530094e+01 1.5771592999e+02 1.2500000000e+02 0.0000e+00 0.0000e+00
      -11  1    4    4    0    0 +5.3983780616e-02 +1.8850501836e-02 -1.4159003588e-01 1.5270098026e-01 5.1100000000e-04 0.0000e+00 -1.0000e+00
      255  1    4    4    0    0 -4.6555066487e+01 +3.9492608875e+01 -1.2820298892e+02 1.8917728917e+02 1.2500000000e+02 0.0000e+00 0.0000e+00
<mgrwt>
<rscale>  0 0.28181797E+03</rscale>
<asrwt>0</asrwt>
<pdfrwt beam="1">  1        1 0.42285847E-01 0.28181797E+03</pdfrwt>
<pdfrwt beam="2">  1       -1 0.11113622E-01 0.28181797E+03</pdfrwt>
<totfact> 0.50336251E+03</totfact>
</mgrwt>
</event>
<event>
 8      1 +1.6198320e-01 3.57050600e+02 7.81860800e-03 1.05975800e-01
       -2 -1    0    0    0  501 -0.0000000000e+00 +0.0000000000e+00 +1.4433364790e+01 1.4433365015e+01 2.5500000000e-03 0.0000e+00 -1.0000e+00
        2 -1    0    0  501    0 +0.0000000000e+00 -0.0000000000e+00 -2.2081673717e+03 2.2081673717e+03 2.5500000000e-03 0.0000e+00 1.0000e+00
  1000101  2    1    2    0    0 -6.0534071451e+01 -7.8894654226e+01 -6.0150692414e+02 6.2237393101e+02 1.2509991986e+02 1.1689e+02 0.0000e+00
 -1000101  2    1    2    0    0 +6.0534071451e+01 +7.8894654226e+01 -1.5922270828e+03 1.6002268057e+03 1.2509998521e+02 4.1154e+01 0.0000e+00
       11  1    3    3    0    0 -1.1436407219e-02 -2.0732338072e-02 -6.9837946078e-01 6.9878090530e-01 5.1100000000e-04 0.0000e+00 1.0000e+00
      255  1    3    3    0    0 -6.0522635044e+01 -7.8873921888e+01 -6.0080854468e+02 6.2167515011e+02 1.2500000000e+02 0.0000e+00 0.0000e+00
      -11  1    4    4    0    0 -1.9472667851e-02 -1.8941581522e-02 -6.0266459639e-02 6.6108059891e-02 5.1100000000e-04 0.0000e+00 -1.0000e+00
      255  1    4    4    0    0 +6.0553544119e+01 +7.8913595807e+01 -1.5921668163e+03 1.6001606976e+03 1.2500000000e+02 0.0000e+00 0.0000e+00
<mgrwt>
<rscale>  0 0.35705062E+03</rscale>
<asrwt>0</asrwt>
<pdfrwt beam="1">  1        2 0.33971779E+00 0.35705062E+03</pdfrwt>
<pdfrwt beam="2">  1       -2 0.22205194E-02 0.35705062E+03</pdfrwt>
<totfact> 0.38070898E+03</totfact>
</mgrwt>
</event>
<event>
 8      1 +1.6198320e-01 4.38719300e+02 7.81860800e-03 1.03114000e-01
        2 -1    0    0  501    0 +0.0000000000e+00 +0.0000000000e+00 +2.1115826531e+03 2.1115826531e+03 2.5500000000e-03 0.0000e+00 -1.0000e+00
       -2 -1    0    0    0  501 -0.0000000000e+00 -0.0000000000e+00 -2.2787958112e+01 2.2787958254e+01 2.5500000000e-03 0.0000e+00 1.0000e+00
  1000101  2    1    2    0    0 +1.6112154694e+02 +6.3692216581e+01 +1.2852902849e+03 1.3029343776e+03 1.2510005781e+02 2.4526e+01 0.0000e+00
 -1000101  2    1    2    0    0 -1.6112154694e+02 -6.3692216581e+01 +8.0350441001e+02 8.3143623370e+02 1.2510004983e+02 5.5586e+01 0.0000e+00
       11  1    3    3    0    0 -2.5378665341e-02 +3.1566762979e-03 +5.2406339172e-02 5.8315750591e-02 5.1100000000e-04 0.0000e+00 1.0000e+00
      255  1    3    3    0    0 +1.6114692561e+02 +6.3689059904e+01 +1.2852378786e+03 1.3028760619e+03 1.2500000000e+02 0.0000e+00 0.0000e+00
      -11  1    4    4    0    0 -2.5793691383e-01 -1.4612838278e-01 +1.1481273036e+00 1.1857830839e+00 5.1100000000e-04 0.0000e+00 -1.0000e+00
      255  1    4    4    0    0 -1.6086361003e+02 -6.3546088198e+01 +8.0235628270e+02 8.3025045062e+02 1.2500000000e+02 0.0000e+00 0.0000e+00
<mgrwt>
<rscale>  0 0.43871931E+03</rscale>
<asrwt>0</asrwt>
<pdfrwt beam="1">  1        2 0.32485902E+00 0.43871931E+03</pdfrwt>
<pdfrwt beam="2">  1       -2 0.35058381E-02 0.43871931E+03</pdfrwt>
<totfact> 0.21529874E+03</totfact>
</mgrwt>
</event>
<event>
 8      1 +1.6198320e-01 8.88672500e+02 7.81860800e-03 9.43985300e-02
       -2 -1    0    0    0  501 -0.0000000000e+00 +0.0000000000e+00 +5.4877514223e+01 5.4877514282e+01 2.5500000000e-03 0.0000e+00 -1.0000e+00
        2 -1    0    0  501    0 +0.0000000000e+00 -0.0000000000e+00 -3.5977344574e+03 3.5977344574e+03 2.5500000000e-03 0.0000e+00 1.0000e+00
  1000101  2    1    2    0    0 -2.8473116914e+01 +3.2936400140e+02 -2.8780799353e+03 2.8997043806e+03 1.2510002871e+02 3.3749e+00 0.0000e+00
 -1000101  2    1    2    0    0 +2.8473116914e+01 -3.2936400140e+02 -6.6477700795e+02 7.5290759114e+02 1.2509998677e+02 1.1813e+02 0.0000e+00
       11  1    3    3    0    0 -1.2584584989e-02 +2.4999215425e-01 -1.3771964575e+00 1.3997588337e+00 5.1100000000e-04 0.0000e+00 1.0000e+00
      255  1    3    3    0    0 -2.8460532329e+01 +3.2911400925e+02 -2.8767027388e+03 2.8983046218e+03 1.2500000000e+02 0.0000e+00 0.0000e+00
      -11  1    4    4    0    0 -6.0133850337e-03 -2.3270595962e-01 -6.7746826332e-01 7.1634609887e-01 5.1100000000e-04 0.0000e+00 -1.0000e+00
      255  1    4    4    0    0 +2.8479130299e+01 -3.2913129544e+02 -6.6409953968e+02 7.5219124504e+02 1.2500000000e+02 0.0000e+00 0.0000e+00
<mgrwt>
<rscale>  0 0.88867255E+03</rscale>
<asrwt>0</asrwt>
<pdfrwt beam="1">  1        2 0.55349742E+00 0.88867255E+03</pdfrwt>
<pdfrwt beam="2">  1       -2 0.84426973E-02 0.88867255E+03</pdfrwt>
<totfact> 0.66307905E+01</totfact>
</mgrwt>
</event>
<event>
 8      1 +1.6198320e-01 3.10606400e+02 7.81860800e-03 1.08005600e-01
        2 -1    0    0  501    0 +0.0000000000e+00 +0.0000000000e+00 +5.6715424486e+02 5.6715424487e+02 2.5500000000e-03 0.0000e+00 1.0000e+00
       -2 -1    0    0    0  501 -0.0000000000e+00 -0.0000000000e+00 -4.2526495440e+01 4.2526495517e+01 2.5500000000e-03 0.0000e+00 -1.0000e+00
  1000101  2    1    2    0    0 +2.2129781886e+01 +7.9011021635e+01 +3.4411181486e+02 3.7522715381e+02 1.2509998818e+02 1.1159e+02 0.0000e+00
 -1000101  2    1    2    0    0 -2.2129781886e+01 -7.9011021635e+01 +1.8051593456e+02 2.3445358657e+02 1.2510001136e+02 5.3677e+01 0.0000e+00
       11  1    3    3    0    0 +1.1477240373e-02 +8.6133277724e-02 +5.4583472789e-01 5.5270831355e-01 5.1100000000e-04 0.0000e+00 1.0000e+00
      255  1    3    3    0    0 +2.2118304646e+01 +7.8924888358e+01 +3.4356598013e+02 3.7467444550e+02 1.2500000000e+02 0.0000e+00 0.0000e+00
      -11  1    4    4    0    0 +7.0575883171e-02 -4.3998931975e-04 +5.7037432048e-02 9.0745130184e-02 5.1100000000e-04 0.0000e+00 -1.0000e+00
      255  1    4    4    0    0 -2.2200357769e+01 -7.9010581646e+01 +1.8045889713e+02 2.3436284144e+02 1.2500000000e+02 0.0000e+00 0.0000e+00
<mgrwt>
<rscale>  0 0.31060639E+03</rscale>
<asrwt>0</asrwt>
<pdfrwt beam="1">  1        2 0.87254492E-01 0.31060639E+03</pdfrwt>
<pdfrwt beam="2">  1       -2 0.65425383E-02 0.31060639E+03</pdfrwt>
<totfact> 0.69776843E+03</totfact>
</mgrwt>
</event>
<event>
 8      1 +1.6198320e-01 3.26301900e+02 7.81860800e-03 1.07278500e-01
        2 -1    0    0  501    0 +0.0000000000e+00 +0.0000000000e+00 +8.0070807863e+02 8.0070807863e+02 2.5500000000e-03 0.0000e+00 1.0000e+00
       -2 -1    0    0    0  501 -0.0000000000e+00 -0.0000000000e+00 -3.3243373007e+01 3.3243373105e+01 2.5500000000e-03 0.0000e+00 -1.0000e+00
  1000101  2    1    2    0    0 -1.7531589888e+01 -1.0309728032e+02 +3.9814588361e+02 4.3024010904e+02 1.2509996378e+02 3.2818e+01 0.0000e+00
 -1000101  2    1    2    0    0 +1.7531589888e+01 +1.0309728032e+02 +3.6931882202e+02 4.0371134270e+02 1.2510016018e+02 4.2045e+01 0.0000e+00
       11  1    3    3    0    0 -5.8832572944e-03 -2.0990239260e-01 +5.0322192871e-01 5.4527625824e-01 5.1100000000e-04 0.0000e+00 1.0000e+00
      255  1    3    3    0    0 -1.7525706631e+01 -1.0288737793e+02 +3.9764266168e+02 4.2969483278e+02 1.2500000000e+02 0.0000e+00 0.0000e+00
      -11  1    4    4    0    0 +7.6052933781e-02 +1.7861310259e-01 +3.5278199973e-01 4.0266870950e-01 5.1100000000e-04 0.0000e+00 -1.0000e+00
      255  1    4    4    0    0 +1.7455536954e+01 +1.0291866722e+02 +3.6896604002e+02 4.0330867400e+02 1.2500000000e+02 0.0000e+00 0.0000e+00
<mgrwt>
<rscale>  0 0.32630193E+03</rscale>
<asrwt>0</asrwt>
<pdfrwt beam="1">  1        2 0.12318584E+00 0.32630193E+03</pdfrwt>
<pdfrwt beam="2">  1       -2 0.51143659E-02 0.32630193E+03</pdfrwt>
<totfact> 0.67214964E+03</totfact>
</mgrwt>
</event>
<event>
 8      1 +1.6198320e-01 2.91919900e+02 7.81860800e-03 1.08935100e-01
       -2 -1    0    0    0  501 -0.0000000000e+00 +0.0000000000e+00 +1.2465374028e+01 1.2465374289e+01 2.5500000000e-03 0.0000e+00 -1.0000e+00
        2 -1    0    0  501    0 +0.0000000000e+00 -0.0000000000e+00 -1.7090786684e+03 1.7090786684e+03 2.5500000000e-03 0.0000e+00 1.0000e+00
  1000101  2    1    2    0    0 -1.4638185292e+00 +6.2479875195e+01 -6.0171516844e+02 6.1775158066e+02 1.2509993566e+02 6.7570e+00 0.0000e+00
 -1000101  2    1    2    0    0 +1.4638185292e+00 -6.2479875195e+01 -1.0948981259e+03 1.1037924620e+03 1.2510002201e+02 1.1847e+02 0.0000e+00
       11  1    3    3    0    0 -3.1697019686e-02 -5.6229643670e-02 -2.8552780874e-01 2.9273343603e-01 5.1100000000e-04 0.0000e+00 1.0000e+00
      255  1    3    3    0    0 -1.4321215096e+00 +6.2536104838e+01 -6.0142964063e+02 6.1745884722e+02 1.2500000000e+02 0.0000e+00 0.0000e+00
      -11  1    4    4    0    0 -3.6403555493e-02 +3.2159689547e-02 -1.3696416682e-01 1.4532346197e-01 5.1100000000e-04 0.0000e+00 -1.0000e+00
      255  1    4    4    0    0 +1.5002220847e+00 -6.2512034884e+01 -1.0947611618e+03 1.1036471386e+03 1.2500000000e+02 0.0000e+00 0.0000e+00
<mgrwt>
<rscale>  0 0.29191989E+03</rscale>
<asrwt>0</asrwt>
<pdfrwt beam="1">  1        2 0.26293499E+00 0.29191989E+03</pdfrwt>
<pdfrwt beam="2">  1       -2 0.19177512E-02 0.29191989E+03</pdfrwt>
<totfact> 0.86988244E+03</totfact>
</mgrwt>
</event>
<event>
 8      1 +1.6198320e-01 3.31243200e+02 7.81860800e-03 1.07058800e-01
       -2 -1    0    0    0  501 -0.0000000000e+00 +0.0000000000e+00 +4.3053266970e+01 4.3053267046e+01 2.5500000000e-03 0.0000e+00 -1.0000e+00
        2 -1    0    0  501    0 +0.0000000000e+00 -0.0000000000e+00 -6.3712987116e+02 6.3712987116e+02 2.5500000000e-03 0.0000e+00 1.0000e+00
  1000101  2    1    2    0    0 -2.8976279011e+01 +4.3344947894e+01 -4.9251271026e+02 5.1082015228e+02 1.2510015569e+02 4.4358e+01 0.0000e+00
 -1000101  2    1    2    0    0 +2.8976279011e+01 -4.3344947894e+01 -1.0156389392e+02 1.6936298592e+02 1.2510070823e+02 8.8172e+00 0.0000e+00
       11  1    3    3    0    0 -5.8024959742e-02 -1.3146645073e-02 -6.7142068752e-01 6.7405172723e-01 5.1100000000e-04 0.0000e+00 1.0000e+00
      255  1    3    3    0    0 -2.8918254051e+01 +4.3358094539e+01 -4.9184128958e+02 5.1014610056e+02 1.2500000000e+02 0.0000e+00 0.0000e+00
      -11  1    4    4    0    0 +1.0361972663e-01 -9.7106797220e-02 -6.6451645478e-02 1.5678922196e-01 5.1100000000e-04 0.0000e+00 -1.0000e+00
      255  1    4    4    0    0 +2.8872659285e+01 -4.3247841097e+01 -1.0149744228e+02 1.6920619670e+02 1.2500000000e+02 0.0000e+00 0.0000e+00
<mgrwt>
<rscale>  0 0.33124325E+03</rscale>
<asrwt>0</asrwt>
<pdfrwt beam="1">  1        2 0.98019974E-01 0.33124325E+03</pdfrwt>
<pdfrwt beam="2">  1       -2 0.66235800E-02 0.33124325E+03</pdfrwt>
<totfact> 0.59849837E+03</totfact>
</mgrwt>
</event>
<event>
 8      1 +1.6198320e-01 3.45770400e+02 7.81860800e-03 1.06436500e-01
        2 -1    0    0  501    0 +0.0000000000e+00 +0.0000000000e+00 +3.8015960027e+02 3.8015960028e+02 2.5500000000e-03 0.0000e+00 1.0000e+00
       -2 -1    0    0    0  501 -0.0000000000e+00 -0.0000000000e+00 -7.8623011430e+01 7.8623011472e+01 2.5500000000e-03 0.0000e+00 -1.0000e+00
  1000101  2    1    2    0    0 +3.3900520260e+00 -5.5912086993e+01 +2.9057048371e+02 3.2127690662e+02 1.2509992327e+02 9.8878e+01 0.0000e+00
 -1000101  2    1    2    0    0 -3.3900520260e+00 +5.5912086993e+01 +1.0966105136e+01 1.3750570513e+02 1.2509959855e+02 5.6857e+01 0.0000e+00
       11  1    3    3    0    0 -1.8108039709e-02 -1.1307869223e-01 +4.6565462217e-01 4.7953016590e-01 5.1100000000e-04 0.0000e+00 1.0000e+00
      255  1    3    3    0    0 +3.4081600657e+00 -5.5799008301e+01 +2.9010482908e+02 3.2079737646e+02 1.2500000000e+02 0.0000e+00 0.0000e+00
      -11  1    4    4    0    0 -9.0699431612e-02 +3.2467581914e-02 -3.6692931415e-02 1.0308813272e-01 5.1100000000e-04 0.0000e+00 -1.0000e+00
      255  1    4    4    0    0 -3.2993525944e+00 +5.5879619411e+01 +1.1002798068e+01 1.3740261700e+02 1.2500000000e+02 0.0000e+00 0.0000e+00
<mgrwt>
<rscale>  0 0.34577040E+03</rscale>
<asrwt>0</asrwt>
<pdfrwt beam="1">  1        2 0.58486093E-01 0.34577040E+03</pdfrwt>
<pdfrwt beam="2">  1       -2 0.12095848E-01 0.34577040E+03</pdfrwt>
<totfact> 0.41328001E+03</totfact>
</mgrwt>
</event>
<event>
 8      1 +1.6198320e-01 2.72435100e+02 7.81860800e-03 1.09989400e-01
        2 -1    0    0  501    0 +0.0000000000e+00 +0.0000000000e+00 +1.2729173242e+03 1.2729173242e+03 2.5500000000e-03 0.0000e+00 1.0000e+00
       -2 -1    0    0    0  501 -0.0000000000e+00 -0.0000000000e+00 -1.4576929186e+01 1.4576929409e+01 2.5500000000e-03 0.0000e+00 -1.0000e+00
  1000101  2    1    2    0    0 +1.6208037101e+01 -1.5850110709e+01 +8.6028393884e+02 8.6962773282e+02 1.2510000716e+02 3.3109e+01 0.0000e+00
 -1000101  2    1    2    0    0 -1.6208037101e+01 +1.5850110709e+01 +3.9805645614e+02 4.1786652075e+02 1.2509820309e+02 1.0292e+02 0.0000e+00
       11  1    3    3    0    0 -4.7187444832e-02 -8.4004011874e-02 +4.5019471561e-01 4.6038991306e-01 5.1100000000e-04 0.0000e+00 1.0000e+00
      255  1    3    3    0    0 +1.6255224546e+01 -1.5766106697e+01 +8.5983374413e+02 8.6916734291e+02 1.2500000000e+02 0.0000e+00 0.0000e+00
      -11  1    4    4    0    0 -7.9292386397e-02 +7.6035906248e-02 +2.3952031936e-01 2.6351278164e-01 5.1100000000e-04 0.0000e+00 -1.0000e+00
      255  1    4    4    0    0 -1.6128744715e+01 +1.5774074802e+01 +3.9781693582e+02 4.1760300797e+02 1.2500000000e+02 0.0000e+00 0.0000e+00
<mgrwt>
<rscale>  0 0.27243514E+03</rscale>
<asrwt>0</asrwt>
<pdfrwt beam="1">  1        2 0.19583351E+00 0.27243514E+03</pdfrwt>
<pdfrwt beam="2">  1       -2 0.22426036E-02 0.27243514E+03</pdfrwt>
<totfact> 0.11845992E+04</totfact>
</mgrwt>
</event>
<event>
 8      1 +1.6198320e-01 3.53627000e+02 7.81860800e-03 1.06113600e-01
        4 -1    0    0  501    0 +0.0000000000e+00 +0.0000000000e+00 +1.9723442857e+02 1.9723851732e+02 1.2700000000e+00 0.0000e+00 1.0000e+00
       -4 -1    0    0    0  501 -0.0000000000e+00 -0.0000000000e+00 -1.5849860929e+02 1.5850369727e+02 1.2700000000e+00 0.0000e+00 -1.0000e+00
  1000101  2    1    2    0    0 -9.8543091502e+01 -5.6604165087e+01 -3.2886926426e+01 1.7218144515e+02 1.2510047057e+02 8.9449e+01 0.0000e+00
 -1000101  2    1    2    0    0 +9.8543091502e+01 +5.6604165087e+01 +7.1622745709e+01 1.8356076944e+02 1.2509982408e+02 1.3118e+02 0.0000e+00
       11  1    3    3    0    0 +7.0385225249e-04 +5.3910755586e-02 -2.5792313805e-02 5.9769302729e-02 5.1100000000e-04 0.0000e+00 1.0000e+00
      255  1    3    3    0    0 -9.8543795355e+01 -5.6658075842e+01 -3.2861134112e+01 1.7212167585e+02 1.2500000000e+02 0.0000e+00 0.0000e+00
      -11  1    4    4    0    0 -2.9132192116e-02 +7.7504527958e-02 +3.7534680090e-02 9.0910669357e-02 5.1100000000e-04 0.0000e+00 -1.0000e+00
      255  1    4    4    0    0 +9.8572223695e+01 +5.6526660559e+01 +7.1585211029e+01 1.8346985877e+02 1.2500000000e+02 0.0000e+00 0.0000e+00
<mgrwt>
<rscale>  0 0.35362701E+03</rscale>
<asrwt>0</asrwt>
<pdfrwt beam="1">  1        4 0.30344464E-01 0.35362701E+03</pdfrwt>
<pdfrwt beam="2">  1       -4 0.24385107E-01 0.35362701E+03</pdfrwt>
<totfact> 0.31440063E+02</totfact>
</mgrwt>
</event>
<event>
 8      1 +1.6198320e-01 2.75010000e+02 7.81860800e-03 1.09844600e-01
       -2 -1    0    0    0  501 -0.0000000000e+00 +0.0000000000e+00 +7.2233034220e+01 7.2233034265e+01 2.5500000000e-03 0.0000e+00 -1.0000e+00
        2 -1    0    0  501    0 +0.0000000000e+00 -0.0000000000e+00 -2.6175876661e+02 2.6175876662e+02 2.5500000000e-03 0.0000e+00 1.0000e+00
  1000101  2    1    2    0    0 -1.1479081324e+01 -5.4770508311e+01 -8.1127547712e+01 1.5925843773e+02 1.2509993246e+02 1.0032e+02 0.0000e+00
 -1000101  2    1    2    0    0 +1.1479081324e+01 +5.4770508311e+01 -1.0839818468e+02 1.7473336316e+02 1.2509997551e+02 1.0288e+02 0.0000e+00
       11  1    3    3    0    0 -4.1487437486e-03 -8.2798660706e-02 -1.8190254908e-01 1.9990404892e-01 5.1100000000e-04 0.0000e+00 1.0000e+00
      255  1    3    3    0    0 -1.1474932580e+01 -5.4687709650e+01 -8.0945645163e+01 1.5905853368e+02 1.2500000000e+02 0.0000e+00 0.0000e+00
      -11  1    4    4    0    0 -7.6270580644e-02 +8.8987410353e-02 -6.0084805986e-02 1.3170575426e-01 5.1100000000e-04 0.0000e+00 -1.0000e+00
      255  1    4    4    0    0 +1.1555351905e+01 +5.4681520901e+01 -1.0833809987e+02 1.7460165741e+02 1.2500000000e+02 0.0000e+00 0.0000e+00
<mgrwt>
<rscale>  0 0.27501004E+03</rscale>
<asrwt>0</asrwt>
<pdfrwt beam="1">  1        2 0.40270579E-01 0.27501004E+03</pdfrwt>
<pdfrwt beam="2">  1       -2 0.11112775E-01 0.27501004E+03</pdfrwt>
<totfact> 0.70489679E+03</totfact>
</mgrwt>
</event>
<event>
 8      1 +1.6198320e-01 4.31445800e+02 7.81860800e-03 1.03340400e-01
        2 -1    0    0  501    0 +0.0000000000e+00 +0.0000000000e+00 +1.6223073148e+03 1.6223073148e+03 2.5500000000e-03 0.0000e+00 1.0000e+00
       -2 -1    0    0    0  501 -0.0000000000e+00 -0.0000000000e+00 -2.8685296524e+01 2.8685296638e+01 2.5500000000e-03 0.0000e+00 -1.0000e+00
  1000101  2    1    2    0    0 +7.7347025592e+00 +1.1578648340e+02 +1.3018725319e+03 1.3130074007e+03 1.2509999845e+02 5.6411e+01 0.0000e+00
 -1000101  2    1    2    0    0 -7.7347025592e+00 -1.1578648340e+02 +2.9174948638e+02 3.3798521074e+02 1.2509957841e+02 2.2514e+01 0.0000e+00
       11  1    3    3    0    0 +1.0232548425e-01 +1.3017106345e-01 +1.1532017557e+00 1.1650277082e+00 5.1100000000e-04 0.0000e+00 1.0000e+00
      255  1    3    3    0    0 +7.6323770749e+00 +1.1565631233e+02 +1.3007193302e+03 1.3118423730e+03 1.2500000000e+02 0.0000e+00 0.0000e+00
      -11  1    4    4    0    0 +4.3850712523e-03 -1.4970217999e-01 +4.7496134777e-01 4.9801457262e-01 5.1100000000e-04 0.0000e+00 -1.0000e+00
      255  1    4    4    0    0 -7.7390876304e+00 -1.1563678122e+02 +2.9127452503e+02 3.3748719617e+02 1.2500000000e+02 0.0000e+00 0.0000e+00
<mgrwt>
<rscale>  0 0.43144579E+03</rscale>
<asrwt>0</asrwt>
<pdfrwt beam="1">  1        2 0.24958573E+00 0.43144579E+03</pdfrwt>
<pdfrwt beam="2">  1       -2 0.44131228E-02 0.43144579E+03</pdfrwt>
<totfact> 0.27737121E+03</totfact>
</mgrwt>
</event>
<event>
 8      1 +1.6198320e-01 3.91650800e+02 7.81860800e-03 1.04671000e-01
       -2 -1    0    0    0  501 -0.0000000000e+00 +0.0000000000e+00 +9.3811157854e+01 9.3811157888e+01 2.5500000000e-03 0.0000e+00 -1.0000e+00
        2 -1    0    0  501    0 +0.0000000000e+00 -0.0000000000e+00 -4.0877417139e+02 4.0877417140e+02 2.5500000000e-03 0.0000e+00 1.0000e+00
  1000101  2    1    2    0    0 -5.5323112688e+00 -2.4545892594e+01 -3.4809651720e+02 3.7074831528e+02 1.2510004272e+02 3.7929e+01 0.0000e+00
 -1000101  2    1    2    0    0 +5.5323112688e+00 +2.4545892594e+01 +3.3133503657e+01 1.3183701401e+02 1.2510020738e+02 1.6747e+02 0.0000e+00
       11  1    3    3    0    0 +1.6537334425e-02 +6.9354160341e-04 -5.4336963295e-01 5.4362191233e-01 5.1100000000e-04 0.0000e+00 1.0000e+00
      255  1    3    3    0    0 -5.5488486032e+00 -2.4546586135e+01 -3.4755314756e+02 3.7020469337e+02 1.2500000000e+02 0.0000e+00 0.0000e+00
      -11  1    4    4    0    0 -1.9566454196e-02 -6.6376186279e-02 +7.2213216092e-02 1.0001826800e-01 5.1100000000e-04 0.0000e+00 -1.0000e+00
      255  1    4    4    0    0 +5.5518777229e+00 +2.4612268780e+01 +3.3061290441e+01 1.3173699574e+02 1.2500000000e+02 0.0000e+00 0.0000e+00
<mgrwt>
<rscale>  0 0.39165075E+03</rscale>
<asrwt>0</asrwt>
<pdfrwt beam="1">  1        2 0.62888333E-01 0.39165075E+03</pdfrwt>
<pdfrwt beam="2">  1       -2 0.14432486E-01 0.39165075E+03</pdfrwt>
<totfact> 0.28616837E+03</totfact>
</mgrwt>
</event>
<event>
 8      1 +1.6198320e-01 3.20624800e+02 7.81860800e-03 1.07536200e-01
        2 -1    0    0  501    0 +0.0000000000e+00 +0.0000000000e+00 +1.1612612328e+02 1.1612612331e+02 2.5500000000e-03 0.0000e+00 1.0000e+00
       -2 -1    0    0    0  501 -0.0000000000e+00 -0.0000000000e+00 -2.2131163561e+02 2.2131163562e+02 2.5500000000e-03 0.0000e+00 -1.0000e+00
  1000101  2    1    2    0    0 +7.4896087133e+01 +6.4076659473e+01 -7.1848782475e+01 1.7472146435e+02 1.2510036133e+02 3.2428e+01 0.0000e+00
 -1000101  2    1    2    0    0 -7.4896087133e+01 -6.4076659473e+01 -3.3336729854e+01 1.6271629458e+02 1.2510001122e+02 5.5578e+01 0.0000e+00
       11  1    3    3    0    0 +8.1641057726e-02 -3.8149508310e-03 +3.7599212568e-02 8.9965427047e-02 5.1100000000e-04 0.0000e+00 1.0000e+00
      255  1    3    3    0    0 +7.4814446076e+01 +6.4080474424e+01 -7.1886381687e+01 1.7463149892e+02 1.2500000000e+02 0.0000e+00 0.0000e+00
      -11  1    4    4    0    0 -1.0884196914e-01 -1.4999845243e-01 -8.2837395718e-02 2.0299853504e-01 5.1100000000e-04 0.0000e+00 -1.0000e+00
      255  1    4    4    0    0 -7.4787245164e+01 -6.3926661021e+01 -3.3253892459e+01 1.6251329605e+02 1.2500000000e+02 0.0000e+00 0.0000e+00
<mgrwt>
<rscale>  0 0.32062478E+03</rscale>
<asrwt>0</asrwt>
<pdfrwt beam="1">  1        2 0.17865557E-01 0.32062478E+03</pdfrwt>
<pdfrwt beam="2">  1       -2 0.34047944E-01 0.32062478E+03</pdfrwt>
<totfact> 0.25671217E+03</totfact>
</mgrwt>
</event>
<event>
 8      1 +1.6198320e-01 4.08820600e+02 7.81860800e-03 1.04076700e-01
        2 -1    0    0  501    0 +0.0000000000e+00 +0.0000000000e+00 +4.6876034264e+02 4.6876034265e+02 2.5500000000e-03 0.0000e+00 1.0000e+00
       -2 -1    0    0    0  501 -0.0000000000e+00 -0.0000000000e+00 -8.9136335341e+01 8.9136335377e+01 2.5500000000e-03 0.0000e+00 -1.0000e+00
  1000101  2    1    2    0    0 -1.4088509939e+02 +7.2671988578e+01 +2.3304658954e+02 3.0836754502e+02 1.2509996312e+02 7.6485e+01 0.0000e+00
 -1000101  2    1    2    0    0 +1.4088509939e+02 -7.2671988578e+01 +1.4657741775e+02 2.4952913300e+02 1.2510003863e+02 3.3327e+01 0.0000e+00
       11  1    3    3    0    0 -8.8959256457e-02 +1.2003298332e-01 +3.0739347893e-01 3.4177869800e-01 5.1100000000e-04 0.0000e+00 1.0000e+00
      255  1    3    3    0    0 -1.4079614013e+02 +7.2551955594e+01 +2.3273919607e+02 3.0802576633e+02 1.2500000000e+02 0.0000e+00 0.0000e+00
      -11  1    4    4    0    0 +2.2993375918e-01 -6.5317663941e-02 +2.4961127905e-01 3.4560379423e-01 5.1100000000e-04 0.0000e+00 -1.0000e+00
      255  1    4    4    0    0 +1.4065516563e+02 -7.2606670914e+01 +1.4632780647e+02 2.4918352920e+02 1.2500000000e+02 0.0000e+00 0.0000e+00
<mgrwt>
<rscale>  0 0.40882064E+03</rscale>
<asrwt>0</asrwt>
<pdfrwt beam="1">  1        2 0.72116976E-01 0.40882064E+03</pdfrwt>
<pdfrwt beam="2">  1       -2 0.13713282E-01 0.40882064E+03</pdfrwt>
<totfact> 0.26756619E+03</totfact>
</mgrwt>
</event>
<event>
 8      1 +1.6198320e-01 2.78669500e+02 7.81860800e-03 1.09641800e-01
        2 -1    0    0  501    0 +0.0000000000e+00 +0.0000000000e+00 +1.2294159043e+03 1.2294159043e+03 2.5500000000e-03 0.0000e+00 1.0000e+00
       -2 -1    0    0    0  501 -0.0000000000e+00 -0.0000000000e+00 -1.5791383314e+01 1.5791383520e+01 2.5500000000e-03 0.0000e+00 -1.0000e+00
  1000101  2    1    2    0    0 -4.2000810160e+01 +8.2986270080e+00 +4.1044417596e+02 4.3121611057e+02 1.2509986879e+02 2.1944e+01 0.0000e+00
 -1000101  2    1    2    0    0 +4.2000810160e+01 -8.2986270080e+00 +8.0318034507e+02 8.1399117729e+02 1.2510009890e+02 3.6845e+01 0.0000e+00
       11  1    3    3    0    0 -9.6656828707e-02 -6.4100873668e-02 +2.6205462544e-01 2.8657346767e-01 5.1100000000e-04 0.0000e+00 1.0000e+00
      255  1    3    3    0    0 -4.1904153331e+01 +8.3627278816e+00 +4.1018212133e+02 4.3092953710e+02 1.2500000000e+02 0.0000e+00 0.0000e+00
      -11  1    4    4    0    0 -9.7423118799e-03 +4.2145227017e-02 +6.1869666520e-02 7.5493374265e-02 5.1100000000e-04 0.0000e+00 -1.0000e+00
      255  1    4    4    0    0 +4.2010552472e+01 -8.3407722350e+00 +8.0311847540e+02 8.1391568392e+02 1.2500000000e+02 0.0000e+00 0.0000e+00
<mgrwt>
<rscale>  0 0.27866954E+03</rscale>
<asrwt>0</asrwt>
<pdfrwt beam="1">  1        2 0.18914095E+00 0.27866954E+03</pdfrwt>
<pdfrwt beam="2">  1       -2 0.24294431E-02 0.27866954E+03</pdfrwt>
<totfact> 0.11139636E+04</totfact>
</mgrwt>
</event>
<event>
 8      1 +1.6198320e-01 4.36851500e+02 7.81860800e-03 1.03171700e-01
       -4 -1    0    0    0  501 -0.0000000000e+00 +0.0000000000e+00 +6.6917982280e+02 6.6918102793e+02 1.2700000000e+00 0.0000e+00 -1.0000e+00
        4 -1    0    0  501    0 +0.0000000000e+00 -0.0000000000e+00 -7.1289010978e+01 7.1300322483e+01 1.2700000000e+00 0.0000e+00 1.0000e+00
  1000101  2    1    2    0    0 -1.1645770782e+02 -7.0884741974e+01 +4.9569273713e+02 5.2910145302e+02 1.2510001433e+02 5.8858e+01 0.0000e+00
 -1000101  2    1    2    0    0 +1.1645770782e+02 +7.0884741974e+01 +1.0219807469e+02 2.1137989739e+02 1.2509984091e+02 1.7159e+02 0.0000e+00
       11  1    3    3    0    0 -1.8355718086e-01 -1.4705675309e-02 +6.2421373611e-01 6.5080914637e-01 5.1100000000e-04 0.0000e+00 1.0000e+00
      255  1    3    3    0    0 -1.1627415064e+02 -7.0870036299e+01 +4.9506852340e+02 5.2845064387e+02 1.2500000000e+02 0.0000e+00 0.0000e+00
      -11  1    4    4    0    0 -1.6648882762e-02 +8.8981826520e-02 +3.8813707238e-02 9.8497287979e-02 5.1100000000e-04 0.0000e+00 -1.0000e+00
      255  1    4    4    0    0 +1.1647435671e+02 +7.0795760147e+01 +1.0215926098e+02 2.1128140010e+02 1.2500000000e+02 0.0000e+00 0.0000e+00
<mgrwt>
<rscale>  0 0.43685147E+03</rscale>
<asrwt>0</asrwt>
<pdfrwt beam="1">  1        4 0.10968503E-01 0.43685147E+03</pdfrwt>
<pdfrwt beam="2">  1       -4 0.10295170E+00 0.43685147E+03</pdfrwt>
<totfact> 0.10039074E+02</totfact>
</mgrwt>
</event>
<event>
 8      1 +1.6198320e-01 2.79009800e+02 7.81860800e-03 1.09623100e-01
        2 -1    0    0  501    0 +0.0000000000e+00 +0.0000000000e+00 +8.0015063248e+02 8.0015063249e+02 2.5500000000e-03 0.0000e+00 1.0000e+00
       -2 -1    0    0    0  501 -0.0000000000e+00 -0.0000000000e+00 -2.4322442320e+01 2.4322442453e+01 2.5500000000e-03 0.0000e+00 -1.0000e+00
  1000101  2    1    2    0    0 +8.6997665523e+00 +3.3472567189e+01 +5.3903829539e+02 5.5444426164e+02 1.2510018657e+02 2.0619e+02 0.0000e+00
 -1000101  2    1    2    0    0 -8.6997665523e+00 -3.3472567189e+01 +2.3678989477e+02 2.7002881330e+02 1.2509998822e+02 1.0417e+02 0.0000e+00
       11  1    3    3    0    0 +4.5366653290e-03 +1.2846120862e-01 +6.2147649406e-01 6.3463072510e-01 5.1100000000e-04 0.0000e+00 1.0000e+00
      255  1    3    3    0    0 +8.6952298870e+00 +3.3344105981e+01 +5.3841681889e+02 5.5380963092e+02 1.2500000000e+02 0.0000e+00 0.0000e+00
      -11  1    4    4    0    0 -3.3439216113e-02 -1.0787797044e-01 +3.4865326903e-01 3.6649038297e-01 5.1100000000e-04 0.0000e+00 -1.0000e+00
      255  1    4    4    0    0 -8.6663273362e+00 -3.3364689219e+01 +2.3644124151e+02 2.6966232292e+02 1.2500000000e+02 0.0000e+00 0.0000e+00
<mgrwt>
<rscale>  0 0.27900980E+03</rscale>
<asrwt>0</asrwt>
<pdfrwt beam="1">  1        2 0.12310008E+00 0.27900980E+03</pdfrwt>
<pdfrwt beam="2">  1       -2 0.37419147E-02 0.27900980E+03</pdfrwt>
<totfact> 0.10751211E+04</totfact>
</mgrwt>
</event>
<event>
 8      1 +1.6198320e-01 2.58991200e+02 7.81860800e-03 1.10775100e-01
        1 -1    0    0  501    0 +0.0000000000e+00 +0.0000000000e+00 +1.4132852681e+02 1.4132852690e+02 5.0400000000e-03 0.0000e+00 1.0000e+00
       -1 -1    0    0    0  501 -0.0000000000e+00 -0.0000000000e+00 -1.1865343528e+02 1.1865343538e+02 5.0400000000e-03 0.0000e+00 -1.0000e+00
  1000101  2    1    2    0    0 -3.0526611246e+01 +1.0608221161e+01 +2.0013007875e+01 1.3074759873e+02 1.2509998297e+02 3.4217e+02 0.0000e+00
 -1000101  2    1    2    0    0 +3.0526611246e+01 -1.0608221161e+01 +2.6620836558e+00 1.2923436356e+02 1.2510006269e+02 3.6329e+01 0.0000e+00
       11  1    3    3    0    0 +2.2437625218e-02 -4.8249885170e-02 +8.3845089770e-02 9.9306387732e-02 5.1100000000e-04 0.0000e+00 1.0000e+00
      255  1    3    3    0    0 -3.0549048871e+01 +1.0656471046e+01 +1.9929162785e+01 1.3064829234e+02 1.2500000000e+02 0.0000e+00 0.0000e+00
      -11  1    4    4    0    0 +2.5911904688e-03 +8.9557205423e-02 +1.1399686806e-02 9.0318443809e-02 5.1100000000e-04 0.0000e+00 -1.0000e+00
      255  1    4    4    0    0 +3.0524020055e+01 -1.0697778367e+01 +2.6506839690e+00 1.2914404511e+02 1.2500000000e+02 0.0000e+00 0.0000e+00
<mgrwt>
<rscale>  0 0.25899124E+03</rscale>
<asrwt>0</asrwt>
<pdfrwt beam="1">  1        1 0.21742850E-01 0.25899124E+03</pdfrwt>
<pdfrwt beam="2">  1       -1 0.18254375E-01 0.25899124E+03</pdfrwt>
<totfact> 0.53081781E+03</totfact>
</mgrwt>
</event>
<event>
 8      1 +1.6198320e-01 4.37515400e+02 7.81860800e-03 1.03151200e-01
       -2 -1    0    0    0  501 -0.0000000000e+00 +0.0000000000e+00 +1.4141636148e+02 1.4141636151e+02 2.5500000000e-03 0.0000e+00 -1.0000e+00
        2 -1    0    0  501    0 +0.0000000000e+00 -0.0000000000e+00 -3.3839746957e+02 3.3839746958e+02 2.5500000000e-03 0.0000e+00 1.0000e+00
  1000101  2    1    2    0    0 -1.2478831929e+02 +1.7457930026e+01 +4.1643721484e+01 1.8237628561e+02 1.2509998426e+02 1.0249e+01 0.0000e+00
 -1000101  2    1    2    0    0 +1.2478831929e+02 -1.7457930026e+01 -2.3862482957e+02 2.9743754548e+02 1.2510147969e+02 8.0296e+01 0.0000e+00
       11  1    3    3    0    0 -8.3394308839e-02 -8.9143026513e-03 -6.9465339593e-02 1.0890257143e-01 5.1100000000e-04 0.0000e+00 1.0000e+00
      255  1    3    3    0    0 -1.2470492498e+02 +1.7466844329e+01 +4.1713186823e+01 1.8226738304e+02 1.2500000000e+02 0.0000e+00 0.0000e+00
      -11  1    4    4    0    0 -3.5868319026e-02 -3.3566608262e-02 -5.5639779085e-02 7.4224656534e-02 5.1100000000e-04 0.0000e+00 -1.0000e+00
      255  1    4    4    0    0 +1.2482418761e+02 -1.7424363418e+01 -2.3856918979e+02 2.9736332082e+02 1.2500000000e+02 0.0000e+00 0.0000e+00
<mgrwt>
<rscale>  0 0.43751543E+03</rscale>
<asrwt>0</asrwt>
<pdfrwt beam="1">  1        2 0.52061149E-01 0.43751543E+03</pdfrwt>
<pdfrwt beam="2">  1       -2 0.21756363E-01 0.43751543E+03</pdfrwt>
<totfact> 0.17534353E+03</totfact>
</mgrwt>
</event>
<event>
 8      1 +1.6198320e-01 2.96211600e+02 7.81860800e-03 1.08715000e-01
       -2 -1    0    0    0  501 -0.0000000000e+00 +0.0000000000e+00 +2.0080729339e+02 2.0080729341e+02 2.5500000000e-03 0.0000e+00 -1.0000e+00
        2 -1    0    0  501    0 +0.0000000000e+00 -0.0000000000e+00 -1.0923570663e+02 1.0923570666e+02 2.5500000000e-03 0.0000e+00 1.0000e+00
  1000101  2    1    2    0    0 +7.0328799279e+01 +1.9926647806e+01 +7.7912808255e+01 1.6451025905e+02 1.2509999337e+02 2.0883e+02 0.0000e+00
 -1000101  2    1    2    0    0 -7.0328799279e+01 -1.9926647806e+01 +1.3658778510e+01 1.4553274101e+02 1.2509998072e+02 1.2987e+02 0.0000e+00
       11  1    3    3    0    0 +1.3646229031e-01 -3.0967810523e-02 +2.4046093997e-02 1.4198393474e-01 5.1100000000e-04 0.0000e+00 1.0000e+00
      255  1    3    3    0    0 +7.0192336989e+01 +1.9957615617e+01 +7.7888762161e+01 1.6436827511e+02 1.2500000000e+02 0.0000e+00 0.0000e+00
      -11  1    4    4    0    0 -7.0207906166e-02 -2.6633963765e-03 +1.1000232823e-01 1.3052592503e-01 5.1100000000e-04 0.0000e+00 -1.0000e+00
      255  1    4    4    0    0 -7.0258591373e+01 -1.9923984410e+01 +1.3548776181e+01 1.4540221509e+02 1.2500000000e+02 0.0000e+00 0.0000e+00
<mgrwt>
<rscale>  0 0.29621159E+03</rscale>
<asrwt>0</asrwt>
<pdfrwt beam="1">  1        2 0.16805493E-01 0.29621159E+03</pdfrwt>
<pdfrwt beam="2">  1       -2 0.30893430E-01 0.29621159E+03</pdfrwt>
<totfact> 0.32929376E+03</totfact>
</mgrwt>
</event>
<event>
 8      1 +1.6198320e-01 2.74776800e+02 7.81860800e-03 1.09857600e-01
        2 -1    0    0  501    0 +0.0000000000e+00 +0.0000000000e+00 +2.0452913822e+03 2.0452913822e+03 2.5500000000e-03 0.0000e+00 1.0000e+00
       -2 -1    0    0    0  501 -0.0000000000e+00 -0.0000000000e+00 -9.2287943422e+00 9.2287946945e+00 2.5500000000e-03 0.0000e+00 -1.0000e+00
  1000101  2    1    2    0    0 -3.5589716070e+01 -4.3899754685e+01 +9.7587741606e+02 9.8548490007e+02 1.2509972318e+02 2.6156e+01 0.0000e+00
 -1000101  2    1    2    0    0 +3.5589716070e+01 +4.3899754685e+01 +1.0601851718e+03 1.0690352768e+03 1.2509999299e+02 4.1653e+01 0.0000e+00
       11  1    3    3    0    0 -6.0043822470e-02 -1.1980349578e-01 +1.4211895486e+00 1.4274936541e+00 5.1100000000e-04 0.0000e+00 1.0000e+00
      255  1    3    3    0    0 -3.5529672247e+01 -4.3779951190e+01 +9.7445622651e+02 9.8405740642e+02 1.2500000000e+02 0.0000e+00 0.0000e+00
      -11  1    4    4    0    0 +1.3208807185e-01 +5.1883955365e-02 +1.0806306463e+00 1.0899091973e+00 5.1100000000e-04 0.0000e+00 -1.0000e+00
      255  1    4    4    0    0 +3.5457627998e+01 +4.3847870730e+01 +1.0591045411e+03 1.0679453676e+03 1.2500000000e+02 0.0000e+00 0.0000e+00
<mgrwt>
<rscale>  0 0.27477681E+03</rscale>
<asrwt>0</asrwt>
<pdfrwt beam="1">  1        2 0.31466042E+00 0.27477681E+03</pdfrwt>
<pdfrwt beam="2">  1       -2 0.14198136E-02 0.27477681E+03</pdfrwt>
<totfact> 0.89912223E+03</totfact>
</mgrwt>
</event>
<event>
 8      1 +1.6198320e-01 5.77257000e+02 7.81860800e-03 9.95374700e-02
       -4 -1    0    0    0  501 -0.0000000000e+00 +0.0000000000e+00 +1.9265061971e+03 1.9265066157e+03 1.2700000000e+00 0.0000e+00 -1.0000e+00
        4 -1    0    0  501    0 +0.0000000000e+00 -0.0000000000e+00 -4.3232470897e+01 4.3251120677e+01 1.2700000000e+00 0.0000e+00 1.0000e+00
  1000101  2    1    2    0    0 -1.5257931648e+02 +1.2756882620e+02 +3.6961450592e+02 4.3797162724e+02 1.2510000018e+02 1.1354e+02 0.0000e+00
 -1000101  2    1    2    0    0 +1.5257931648e+02 -1.2756882620e+02 +1.5136592203e+03 1.5317861092e+03 1.2510074257e+02 9.1868e+01 0.0000e+00
       11  1    3    3    0    0 -2.5999133794e-01 +2.2774066626e-01 +5.3004414712e-01 6.3277829126e-01 5.1100000000e-04 0.0000e+00 1.0000e+00
      255  1    3    3    0    0 -1.5231932514e+02 +1.2734108554e+02 +3.6908446177e+02 4.3733884895e+02 1.2500000000e+02 0.0000e+00 0.0000e+00
      -11  1    4    4    0    0 +2.4756176407e-01 -1.5353427739e-01 +2.3196107443e+00 2.3378310177e+00 5.1100000000e-04 0.0000e+00 -1.0000e+00
      255  1    4    4    0    0 +1.5233175471e+02 -1.2741529193e+02 +1.5113396095e+03 1.5294482781e+03 1.2500000000e+02 0.0000e+00 0.0000e+00
<mgrwt>
<rscale>  0 0.57725697E+03</rscale>
<asrwt>0</asrwt>
<pdfrwt beam="1">  1        4 0.66526187E-02 0.57725697E+03</pdfrwt>
<pdfrwt beam="2">  1       -4 0.29638692E+00 0.57725697E+03</pdfrwt>
<totfact> 0.10656411E+01</totfact>
</mgrwt>
</event>
<event>
 8      1 +1.6198320e-01 3.62186200e+02 7.81860800e-03 1.05772200e-01
        2 -1    0    0  501    0 +0.0000000000e+00 +0.0000000000e+00 +1.3948955284e+03 1.3948955285e+03 2.5500000000e-03 0.0000e+00 1.0000e+00
       -2 -1    0    0    0  501 -0.0000000000e+00 -0.0000000000e+00 -2.3510518398e+01 2.3510518536e+01 2.5500000000e-03 0.0000e+00 -1.0000e+00
  1000101  2    1    2    0    0 -5.9433994261e+01 -8.8939562833e+01 +3.8997314400e+02 4.2328678976e+02 1.2509999136e+02 2.1456e+00 0.0000e+00
 -1000101  2    1    2    0    0 +5.9433994261e+01 +8.8939562833e+01 +9.8141186605e+02 9.9511925722e+02 1.2510171764e+02 1.8276e+02 0.0000e+00
       11  1    3    3    0    0 -1.5857606446e-02 +4.2233305213e-02 +4.2217000427e-02 6.1787150745e-02 5.1100000000e-04 0.0000e+00 1.0000e+00
      255  1    3    3    0    0 -5.9418136654e+01 -8.8981796138e+01 +3.8993092700e+02 4.2322500261e+02 1.2500000000e+02 0.0000e+00 0.0000e+00
      -11  1    4    4    0    0 +3.5040386740e-02 +1.9702802042e-03 +3.4995705665e-02 4.9564818609e-02 5.1100000000e-04 0.0000e+00 -1.0000e+00
      255  1    4    4    0    0 +5.9398953874e+01 +8.8937592553e+01 +9.8137687035e+02 9.9506969241e+02 1.2500000000e+02 0.0000e+00 0.0000e+00
<mgrwt>
<rscale>  0 0.36218623E+03</rscale>
<asrwt>0</asrwt>
<pdfrwt beam="1">  1        2 0.21459936E+00 0.36218623E+03</pdfrwt>
<pdfrwt beam="2">  1       -2 0.36170020E-02 0.36218623E+03</pdfrwt>
<totfact> 0.49916236E+03</totfact>
</mgrwt>
</event>
<event>
 8      1 +1.6198320e-01 2.99309500e+02 7.81860800e-03 1.08558600e-01
       -2 -1    0    0    0  501 -0.0000000000e+00 +0.0000000000e+00 +4.6538416919e+01 4.6538416989e+01 2.5500000000e-03 0.0000e+00 -1.0000e+00
        2 -1    0    0  501    0 +0.0000000000e+00 -0.0000000000e+00 -4.8124837985e+02 4.8124837986e+02 2.5500000000e-03 0.0000e+00 1.0000e+00
  1000101  2    1    2    0    0 -7.1622238850e+01 -1.0473442880e+01 -2.8581011170e+02 3.2027631851e+02 1.2510020841e+02 3.6566e+01 0.0000e+00
 -1000101  2    1    2    0    0 +7.1622238850e+01 +1.0473442880e+01 -1.4889985124e+02 2.0751047834e+02 1.2509993932e+02 7.9447e+01 0.0000e+00
       11  1    3    3    0    0 -1.5014918257e-01 +3.7866105799e-02 -3.8665280116e-01 4.1650842580e-01 5.1100000000e-04 0.0000e+00 1.0000e+00
      255  1    3    3    0    0 -7.1472089667e+01 -1.0511308986e+01 -2.8542345890e+02 3.1985981008e+02 1.2500000000e+02 0.0000e+00 0.0000e+00
      -11  1    4    4    0    0 +1.3123799519e-01 -1.5840972641e-02 -5.2045385470e-02 1.4206805083e-01 5.1100000000e-04 0.0000e+00 -1.0000e+00
      255  1    4    4    0    0 +7.1491000855e+01 +1.0489283852e+01 -1.4884780585e+02 2.0736841029e+02 1.2500000000e+02 0.0000e+00 0.0000e+00
<mgrwt>
<rscale>  0 0.29930946E+03</rscale>
<asrwt>0</asrwt>
<pdfrwt beam="1">  1        2 0.74038209E-01 0.29930946E+03</pdfrwt>
<pdfrwt beam="2">  1       -2 0.71597568E-02 0.29930946E+03</pdfrwt>
<totfact> 0.72996975E+03</totfact>
</mgrwt>
</event>
<event>
 8      1 +1.6198320e-01 3.58340500e+02 7.81860800e-03 1.05924300e-01
       -1 -1    0    0    0  501 -0.0000000000e+00 +0.0000000000e+00 +7.4390489831e+01 7.4390490001e+01 5.0400000000e-03 0.0000e+00 -1.0000e+00
        1 -1    0    0  501    0 +0.0000000000e+00 -0.0000000000e+00 -4.3153343348e+02 4.3153343351e+02 5.0400000000e-03 0.0000e+00 1.0000e+00
  1000101  2    1    2    0    0 +2.7998998561e+01 -1.0368030723e+02 -7.9556455701e+01 1.8306497387e+02 1.2509997996e+02 3.0434e+01 0.0000e+00
 -1000101  2    1    2    0    0 -2.7998998561e+01 +1.0368030723e+02 -2.7758648795e+02 3.2285894964e+02 1.2510033192e+02 3.2599e+02 0.0000e+00
       11  1    3    3    0    0 +1.1986995666e-01 -8.5440235079e-02 -4.0825339623e-02 1.5276062895e-01 5.1100000000e-04 0.0000e+00 1.0000e+00
      255  1    3    3    0    0 +2.7879128604e+01 -1.0359486700e+02 -7.9515630362e+01 1.8291221324e+02 1.2500000000e+02 0.0000e+00 0.0000e+00
      -11  1    4    4    0    0 -4.9628904956e-02 +7.4583883484e-02 -3.2969363293e-02 9.5462159624e-02 5.1100000000e-04 0.0000e+00 -1.0000e+00
      255  1    4    4    0    0 -2.7949369656e+01 +1.0360572335e+02 -2.7755351859e+02 3.2276348748e+02 1.2500000000e+02 0.0000e+00 0.0000e+00
<mgrwt>
<rscale>  0 0.35834053E+03</rscale>
<asrwt>0</asrwt>
<pdfrwt beam="1">  1        1 0.66389757E-01 0.35834053E+03</pdfrwt>
<pdfrwt beam="2">  1       -1 0.11444691E-01 0.35834053E+03</pdfrwt>
<totfact> 0.27178898E+03</totfact>
</mgrwt>
</event>
<event>
 8      1 +1.6198320e-01 2.98488000e+02 7.81860800e-03 1.08599900e-01
       -2 -1    0    0    0  501 -0.0000000000e+00 +0.0000000000e+00 +3.0290060609e+01 3.0290060716e+01 2.5500000000e-03 0.0000e+00 -1.0000e+00
        2 -1    0    0  501    0 +0.0000000000e+00 -0.0000000000e+00 -7.3534937639e+02 7.3534937640e+02 2.5500000000e-03 0.0000e+00 1.0000e+00
  1000101  2    1    2    0    0 +1.5420859490e+00 +7.8607193067e+01 -2.9858350004e+02 3.3314196009e+02 1.2509992106e+02 0.0000e+00 0.0000e+00
 -1000101  2    1    2    0    0 -1.5420859490e+00 -7.8607193067e+01 -4.0647581575e+02 4.3249747702e+02 1.2510000004e+02 8.0813e+01 0.0000e+00
       11  1    3    3    0    0 -4.8788008354e-02 +1.3986524549e-02 -3.5655113078e-01 3.6014561307e-01 5.1100000000e-04 0.0000e+00 1.0000e+00
      255  1    3    3    0    0 +1.5908739573e+00 +7.8593206543e+01 -2.9822694891e+02 3.3278181448e+02 1.2500000000e+02 0.0000e+00 0.0000e+00
      -11  1    4    4    0    0 -3.0205038727e-02 -1.1283952991e-01 -1.4748524401e-01 1.8814160145e-01 5.1100000000e-04 0.0000e+00 -1.0000e+00
      255  1    4    4    0    0 -1.5118809102e+00 -7.8494353538e+01 -4.0632833050e+02 4.3230933542e+02 1.2500000000e+02 0.0000e+00 0.0000e+00
<mgrwt>
<rscale>  0 0.29848804E+03</rscale>
<asrwt>0</asrwt>
<pdfrwt beam="1">  1        2 0.11313066E+00 0.29848804E+03</pdfrwt>
<pdfrwt beam="2">  1       -2 0.46600099E-02 0.29848804E+03</pdfrwt>
<totfact> 0.86018509E+03</totfact>
</mgrwt>
</event>
<event>
 8      1 +1.6198320e-01 2.96181700e+02 7.81860800e-03 1.08716500e-01
       -2 -1    0    0    0  501 -0.0000000000e+00 +0.0000000000e+00 +5.9718356311e+01 5.9718356365e+01 2.5500000000e-03 0.0000e+00 -1.0000e+00
        2 -1    0    0  501    0 +0.0000000000e+00 -0.0000000000e+00 -3.6723874804e+02 3.6723874804e+02 2.5500000000e-03 0.0000e+00 1.0000e+00
  1000101  2    1    2    0    0 -3.9828070545e+01 -6.8180436571e+01 -1.4398002540e+02 2.0643425440e+02 1.2509998619e+02 2.4562e+01 0.0000e+00
 -1000101  2    1    2    0    0 +3.9828070545e+01 +6.8180436571e+01 -1.6354036633e+02 2.2052285001e+02 1.2510007523e+02 1.9917e+01 0.0000e+00
       11  1    3    3    0    0 +4.9580012165e-02 -1.7984875022e-02 -1.6026469660e-01 1.6872067874e-01 5.1100000000e-04 0.0000e+00 1.0000e+00
      255  1    3    3    0    0 -3.9877650557e+01 -6.8162451696e+01 -1.4381976070e+02 2.0626553372e+02 1.2500000000e+02 0.0000e+00 0.0000e+00
      -11  1    4    4    0    0 -2.3940164902e-02 +5.3156863946e-02 +1.2461678618e-02 5.9618270989e-02 5.1100000000e-04 0.0000e+00 -1.0000e+00
      255  1    4    4    0    0 +3.9852010710e+01 +6.8127279707e+01 -1.6355282801e+02 2.2046323174e+02 1.2500000000e+02 0.0000e+00 0.0000e+00
<mgrwt>
<rscale>  0 0.29618166E+03</rscale>
<asrwt>0</asrwt>
<pdfrwt beam="1">  1        2 0.56498267E-01 0.29618166E+03</pdfrwt>
<pdfrwt beam="2">  1       -2 0.91874397E-02 0.29618166E+03</pdfrwt>
<totfact> 0.66408109E+03</totfact>
</mgrwt>
</event>
<event>
 8      1 +1.6198320e-01 3.79812600e+02 7.81860800e-03 1.05100300e-01
        2 -1    0    0  501    0 +0.0000000000e+00 +0.0000000000e+00 +4.4356330096e+02 4.4356330097e+02 2.5500000000e-03 0.0000e+00 1.0000e+00
       -2 -1    0    0    0  501 -0.0000000000e+00 -0.0000000000e+00 -8.1306106771e+01 8.1306106811e+01 2.5500000000e-03 0.0000e+00 -1.0000e+00
  1000101  2    1    2    0    0 +1.2555971111e+02 +6.2126582502e+01 +1.4230149157e+02 2.3563684862e+02 1.2510018631e+02 8.2763e+01 0.0000e+00
 -1000101  2    1    2    0    0 -1.2555971111e+02 -6.2126582502e+01 +2.1995570262e+02 2.8923255916e+02 1.2509999543e+02 1.5701e+02 0.0000e+00
       11  1    3    3    0    0 +2.9862487378e-02 +1.2342807133e-01 +1.1084490188e-01 1.6856188875e-01 5.1100000000e-04 0.0000e+00 1.0000e+00
      255  1    3    3    0    0 +1.2552984863e+02 +6.2003154431e+01 +1.4219064667e+02 2.3546828673e+02 1.2500000000e+02 0.0000e+00 0.0000e+00
      -11  1    4    4    0    0 -1.9594579234e-01 -2.4021760139e-02 +3.2869199815e-01 3.8341946908e-01 5.1100000000e-04 0.0000e+00 -1.0000e+00
      255  1    4    4    0    0 -1.2536376532e+02 -6.2102560742e+01 +2.1962701062e+02 2.8884913969e+02 1.2500000000e+02 0.0000e+00 0.0000e+00
<mgrwt>
<rscale>  0 0.37981261E+03</rscale>
<asrwt>0</asrwt>
<pdfrwt beam="1">  1        2 0.68240507E-01 0.37981261E+03</pdfrwt>
<pdfrwt beam="2">  1       -2 0.12508632E-01 0.37981261E+03</pdfrwt>
<totfact> 0.33071611E+03</totfact>
</mgrwt>
</event>
<event>
 8      1 +1.6198320e-01 6.87413600e+02 7.81860800e-03 9.73900200e-02
        2 -1    0    0  501    0 +0.0000000000e+00 +0.0000000000e+00 +2.7875264310e+03 2.7875264310e+03 2.5500000000e-03 0.0000e+00 1.0000e+00
       -2 -1    0    0    0  501 -0.0000000000e+00 -0.0000000000e+00 -4.2379637443e+01 4.2379637520e+01 2.5500000000e-03 0.0000e+00 -1.0000e+00
  1000101  2    1    2    0    0 -1.7851226297e+02 -2.2756674979e+02 +1.9374996123e+03 1.9629589934e+03 1.2509999430e+02 8.2878e+01 0.0000e+00
 -1000101  2    1    2    0    0 +1.7851226297e+02 +2.2756674979e+02 +8.0764718126e+02 8.6694707510e+02 1.2509999192e+02 2.7063e+02 0.0000e+00
       11  1    3    3    0    0 -3.0037066719e-01 -3.3370224113e-01 +2.5182367337e+00 2.5579476600e+00 5.1100000000e-04 0.0000e+00 1.0000e+00
      255  1    3    3    0    0 -1.7821189230e+02 -2.2723304755e+02 +1.9349813756e+03 1.9604010458e+03 1.2500000000e+02 0.0000e+00 0.0000e+00
      -11  1    4    4    0    0 +2.5918211009e-01 +3.8405337878e-01 +1.1285345900e+00 1.2199438290e+00 5.1100000000e-04 0.0000e+00 -1.0000e+00
      255  1    4    4    0    0 +1.7825308086e+02 +2.2718269641e+02 +8.0651864667e+02 8.6572713127e+02 1.2500000000e+02 0.0000e+00 0.0000e+00
<mgrwt>
<rscale>  0 0.68741359E+03</rscale>
<asrwt>0</asrwt>
<pdfrwt beam="1">  1        2 0.42885029E+00 0.68741359E+03</pdfrwt>
<pdfrwt beam="2">  1       -2 0.65199431E-02 0.68741359E+03</pdfrwt>
<totfact> 0.33788062E+02</totfact>
</mgrwt>
</event>
<event>
 8      1 +1.6198320e-01 4.98458600e+02 7.81860800e-03 1.01418200e-01
       -3 -1    0    0    0  501 -0.0000000000e+00 +0.0000000000e+00 +4.8315765239e+02 4.8315766295e+02 1.0100000000e-01 0.0000e+00 -1.0000e+00
        3 -1    0    0  501    0 +0.0000000000e+00 -0.0000000000e+00 -1.2856100384e+02 1.2856104352e+02 1.0100000000e-01 0.0000e+00 1.0000e+00
  1000101  2    1    2    0    0 -1.3371838644e+02 +4.7532575110e+01 -2.1819117158e+01 1.9043639541e+02 1.2509993706e+02 2.7680e+02 0.0000e+00
 -1000101  2    1    2    0    0 +1.3371838644e+02 -4.7532575110e+01 +3.7641576571e+02 4.2128231106e+02 1.2509997749e+02 1.3094e+02 0.0000e+00
       11  1    3    3    0    0 +2.0771772437e-02 -2.3292706698e-02 -3.8609062526e-02 4.9648137387e-02 5.1100000000e-04 0.0000e+00 1.0000e+00
      255  1    3    3    0    0 -1.3373915821e+02 +4.7555867817e+01 -2.1780508096e+01 1.9038674727e+02 1.2500000000e+02 0.0000e+00 0.0000e+00
      -11  1    4    4    0    0 +2.4865017707e-01 -6.1439790350e-02 +4.5790655887e-01 5.2467174135e-01 5.1100000000e-04 0.0000e+00 -1.0000e+00
      255  1    4    4    0    0 +1.3346973626e+02 -4.7471135319e+01 +3.7595785915e+02 4.2075763932e+02 1.2500000000e+02 0.0000e+00 0.0000e+00
<mgrwt>
<rscale>  0 0.49845862E+03</rscale>
<asrwt>0</asrwt>
<pdfrwt beam="1">  1        3 0.19778620E-01 0.49845862E+03</pdfrwt>
<pdfrwt beam="2">  1       -3 0.74331950E-01 0.49845862E+03</pdfrwt>
<totfact> 0.10444669E+02</totfact>
</mgrwt>
</event>
<event>
 8      1 +1.6198320e-01 3.39726000e+02 7.81860800e-03 1.06691300e-01
       -2 -1    0    0    0  501 -0.0000000000e+00 +0.0000000000e+00 +9.7870439539e+00 9.7870442861e+00 2.5500000000e-03 0.0000e+00 -1.0000e+00
        2 -1    0    0  501    0 +0.0000000000e+00 -0.0000000000e+00 -2.9481252017e+03 2.9481252017e+03 2.5500000000e-03 0.0000e+00 1.0000e+00
  1000101  2    1    2    0    0 -1.2472127400e+01 +1.0462792636e+02 -1.8682244811e+03 1.8753707128e+03 1.2510012676e+02 7.1068e+01 0.0000e+00
 -1000101  2    1    2    0    0 +1.2472127400e+01 -1.0462792636e+02 -1.0701136767e+03 1.0825415332e+03 1.2510129173e+02 4.5501e+01 0.0000e+00
       11  1    3    3    0    0 -8.3930985894e-02 +8.4318660999e-02 -2.3398527050e+00 2.3428753678e+00 5.1100000000e-04 0.0000e+00 1.0000e+00
      255  1    3    3    0    0 -1.2388196414e+01 +1.0454360770e+02 -1.8658846284e+03 1.8730278374e+03 1.2500000000e+02 0.0000e+00 0.0000e+00
      -11  1    4    4    0    0 -4.2779315614e-02 +2.3686234292e-02 -1.6738667932e-01 1.7438368351e-01 5.1100000000e-04 0.0000e+00 -1.0000e+00
      255  1    4    4    0    0 +1.2514906715e+01 -1.0465161259e+02 -1.0699462900e+03 1.0823671495e+03 1.2500000000e+02 0.0000e+00 0.0000e+00
<mgrwt>
<rscale>  0 0.33972596E+03</rscale>
<asrwt>0</asrwt>
<pdfrwt beam="1">  1        2 0.45355702E+00 0.33972596E+03</pdfrwt>
<pdfrwt beam="2">  1       -2 0.15057014E-02 0.33972596E+03</pdfrwt>
<totfact> 0.26062430E+03</totfact>
</mgrwt>
</event>
<event>
 8      1 +1.6198320e-01 4.03023300e+02 7.81860800e-03 1.04273800e-01
        2 -1    0    0  501    0 +0.0000000000e+00 +0.0000000000e+00 +5.6514027823e+02 5.6514027824e+02 2.5500000000e-03 0.0000e+00 1.0000e+00
       -2 -1    0    0    0  501 -0.0000000000e+00 -0.0000000000e+00 -7.1852843022e+01 7.1852843067e+01 2.5500000000e-03 0.0000e+00 -1.0000e+00
  1000101  2    1    2    0    0 -1.1601522241e+02 +5.8838256844e+01 +1.0496327501e+02 2.0877921574e+02 1.2509995814e+02 8.7685e+01 0.0000e+00
 -1000101  2    1    2    0    0 +1.1601522241e+02 -5.8838256844e+01 +3.8832416020e+02 4.2821390556e+02 1.2510005285e+02 1.0683e+02 0.0000e+00
       11  1    3    3    0    0 -5.8629708935e-02 -4.3351463457e-03 +1.6276654229e-01 1.7305907857e-01 5.1100000000e-04 0.0000e+00 1.0000e+00
      255  1    3    3    0    0 -1.1595659270e+02 +5.8842591990e+01 +1.0480050847e+02 2.0860615667e+02 1.2500000000e+02 0.0000e+00 0.0000e+00
      -11  1    4    4    0    0 +2.1506257690e-02 +3.1056871858e-02 +3.0540434888e-01 3.0773223075e-01 5.1100000000e-04 0.0000e+00 -1.0000e+00
      255  1    4    4    0    0 +1.1599371615e+02 -5.8869313715e+01 +3.8801875585e+02 4.2790617333e+02 1.2500000000e+02 0.0000e+00 0.0000e+00
<mgrwt>
<rscale>  0 0.40302325E+03</rscale>
<asrwt>0</asrwt>
<pdfrwt beam="1">  1        2 0.86944655E-01 0.40302325E+03</pdfrwt>
<pdfrwt beam="2">  1       -2 0.11054284E-01 0.40302325E+03</pdfrwt>
<totfact> 0.30736904E+03</totfact>
</mgrwt>
</event>
<event>
 8      1 +1.6198320e-01 3.81921900e+02 7.81860800e-03 1.05022600e-01
       -2 -1    0    0    0  501 -0.0000000000e+00 +0.0000000000e+00 +4.7741486839e+01 4.7741486907e+01 2.5500000000e-03 0.0000e+00 -1.0000e+00
        2 -1    0    0  501    0 +0.0000000000e+00 -0.0000000000e+00 -7.6382379293e+02 7.6382379294e+02 2.5500000000e-03 0.0000e+00 1.0000e+00
  1000101  2    1    2    0    0 -1.1770585022e+02 -7.7063094967e+01 -4.2599550503e+02 4.6574200659e+02 1.2510019430e+02 1.0894e+02 0.0000e+00
 -1000101  2    1    2    0    0 +1.1770585022e+02 +7.7063094967e+01 -2.9008680106e+02 3.4582327325e+02 1.2509994560e+02 6.8256e+01 0.0000e+00
       11  1    3    3    0    0 -2.2352952596e-01 -8.2697103632e-02 -6.1641436545e-01 6.6088667030e-01 5.1100000000e-04 0.0000e+00 1.0000e+00
      255  1    3    3    0    0 -1.1748232070e+02 -7.6980397863e+01 -4.2537909067e+02 4.6508111992e+02 1.2500000000e+02 0.0000e+00 0.0000e+00
      -11  1    4    4    0    0 +2.1026075690e-01 +4.2130879725e-02 -3.0073330338e-01 3.6935806177e-01 5.1100000000e-04 0.0000e+00 -1.0000e+00
      255  1    4    4    0    0 +1.1749558947e+02 +7.7020964087e+01 -2.8978606776e+02 3.4545391519e+02 1.2500000000e+02 0.0000e+00 0.0000e+00
<mgrwt>
<rscale>  0 0.38192190E+03</rscale>
<asrwt>0</asrwt>
<pdfrwt beam="1">  1        2 0.11751134E+00 0.38192190E+03</pdfrwt>
<pdfrwt beam="2">  1       -2 0.73448447E-02 0.38192190E+03</pdfrwt>
<totfact> 0.40887585E+03</totfact>
</mgrwt>
</event>
<event>
 8      1 +1.6198320e-01 3.73554600e+02 7.81860800e-03 1.05334200e-01
        2 -1    0    0  501    0 +0.0000000000e+00 +0.0000000000e+00 +7.3888231322e+02 7.3888231322e+02 2.5500000000e-03 0.0000e+00 1.0000e+00
       -2 -1    0    0    0  501 -0.0000000000e+00 -0.0000000000e+00 -4.7214230076e+01 4.7214230145e+01 2.5500000000e-03 0.0000e+00 -1.0000e+00
  1000101  2    1    2    0    0 -3.2198181423e+01 +6.0887658822e+01 +5.9916101518e+02 6.1594475468e+02 1.2509991538e+02 4.5219e+01 0.0000e+00
 -1000101  2    1    2    0    0 +3.2198181423e+01 -6.0887658822e+01 +9.2507067963e+01 1.7015178868e+02 1.2510013463e+02 1.7002e+01 0.0000e+00
       11  1    3    3    0    0 -1.0884426264e-02 -6.0942751891e-02 +3.3768092848e-01 3.4330913231e-01 5.1100000000e-04 0.0000e+00 1.0000e+00
      255  1    3    3    0    0 -3.2187296997e+01 +6.0948601574e+01 +5.9882333425e+02 6.1560144555e+02 1.2500000000e+02 0.0000e+00 0.0000e+00
      -11  1    4    4    0    0 +6.7617358310e-02 -1.0982632517e-01 +6.3284270742e-03 1.2912876889e-01 5.1100000000e-04 0.0000e+00 -1.0000e+00
      255  1    4    4    0    0 +3.2130564065e+01 -6.0777832497e+01 +9.2500739536e+01 1.7002265992e+02 1.2500000000e+02 0.0000e+00 0.0000e+00
<mgrwt>
<rscale>  0 0.37355460E+03</rscale>
<asrwt>0</asrwt>
<pdfrwt beam="1">  1        2 0.11367419E+00 0.37355460E+03</pdfrwt>
<pdfrwt beam="2">  1       -2 0.72637283E-02 0.37355460E+03</pdfrwt>
<totfact> 0.43368516E+03</totfact>
</mgrwt>
</event>
<event>
 8      1 +1.6198320e-01 2.95807300e+02 7.81860800e-03 1.08735500e-01
        2 -1    0    0  501    0 +0.0000000000e+00 +0.0000000000e+00 +1.5583996397e+03 1.5583996397e+03 2.5500000000e-03 0.0000e+00 -1.0000e+00
       -2 -1    0    0    0  501 -0.0000000000e+00 -0.0000000000e+00 -1.4037147790e+01 1.4037148022e+01 2.5500000000e-03 0.0000e+00 1.0000e+00
  1000101  2    1    2    0    0 +1.2397741979e+01 +1.3283878549e+01 +3.6403298843e+02 3.8535721515e+02 1.2509996471e+02 2.7018e+01 0.0000e+00
 -1000101  2    1    2    0    0 -1.2397741979e+01 -1.3283878549e+01 +1.1803295034e+03 1.1870795725e+03 1.2509999757e+02 1.2287e+02 0.0000e+00
       11  1    3    3    0    0 -4.9036180687e-02 +6.0589360511e-02 +4.8237144371e-01 4.8862878389e-01 5.1100000000e-04 0.0000e+00 1.0000e+00
      255  1    3    3    0    0 +1.2446778160e+01 +1.3223289189e+01 +3.6355061698e+02 3.8486858637e+02 1.2500000000e+02 0.0000e+00 0.0000e+00
      -11  1    4    4    0    0 +8.8271680086e-02 +2.1808902090e-03 +1.0057453158e+00 1.0096140585e+00 5.1100000000e-04 0.0000e+00 -1.0000e+00
      255  1    4    4    0    0 -1.2486013659e+01 -1.3286059439e+01 +1.1793237581e+03 1.1860699585e+03 1.2500000000e+02 0.0000e+00 0.0000e+00
<mgrwt>
<rscale>  0 0.29580728E+03</rscale>
<asrwt>0</asrwt>
<pdfrwt beam="1">  1        2 0.23975387E+00 0.29580728E+03</pdfrwt>
<pdfrwt beam="2">  1       -2 0.21595605E-02 0.29580728E+03</pdfrwt>
<totfact> 0.87773395E+03</totfact>
</mgrwt>
</event>
<event>
 8      1 +1.6198320e-01 3.20157600e+02 7.81860800e-03 1.07557700e-01
       -2 -1    0    0    0  501 -0.0000000000e+00 +0.0000000000e+00 +1.1378874513e+01 1.1378874799e+01 2.5500000000e-03 0.0000e+00 -1.0000e+00
        2 -1    0    0  501    0 +0.0000000000e+00 -0.0000000000e+00 -2.2519998795e+03 2.2519998795e+03 2.5500000000e-03 0.0000e+00 1.0000e+00
  1000101  2    1    2    0    0 +1.2523747271e+01 +8.0611438884e+01 -1.5276695027e+03 1.5349525072e+03 1.2510012572e+02 5.0771e+01 0.0000e+00
 -1000101  2    1    2    0    0 -1.2523747271e+01 -8.0611438884e+01 -7.1295150228e+02 7.2842624713e+02 1.2509957864e+02 9.4113e+00 0.0000e+00
       11  1    3    3    0    0 +3.7439302744e-03 +1.7320616562e-01 -2.2204287448e+00 2.2271772414e+00 5.1100000000e-04 0.0000e+00 1.0000e+00
      255  1    3    3    0    0 +1.2520003341e+01 +8.0438232718e+01 -1.5254490740e+03 1.5327253300e+03 1.2500000000e+02 0.0000e+00 0.0000e+00
      -11  1    4    4    0    0 -6.3364261134e-02 +3.2095010832e-02 -3.0692130055e-01 3.1503343499e-01 5.1100000000e-04 0.0000e+00 -1.0000e+00
      255  1    4    4    0    0 -1.2460383010e+01 -8.0643533894e+01 -7.1264458098e+02 7.2811121369e+02 1.2500000000e+02 0.0000e+00 0.0000e+00
<mgrwt>
<rscale>  0 0.32015761E+03</rscale>
<asrwt>0</asrwt>
<pdfrwt beam="1">  1        2 0.34646117E+00 0.32015761E+03</pdfrwt>
<pdfrwt beam="2">  1       -2 0.17505979E-02 0.32015761E+03</pdfrwt>
<totfact> 0.51338111E+03</totfact>
</mgrwt>
</event>
<event>
 8      1 +1.6198320e-01 2.73472500e+02 7.81860800e-03 1.09930800e-01
       -3 -1    0    0    0  501 -0.0000000000e+00 +0.0000000000e+00 +1.5746057623e+01 1.5746381542e+01 1.0100000000e-01 0.0000e+00 -1.0000e+00
        3 -1    0    0  501    0 +0.0000000000e+00 -0.0000000000e+00 -1.1873831662e+03 1.1873831705e+03 1.0100000000e-01 0.0000e+00 1.0000e+00
  1000101  2    1    2    0    0 +5.4375946254e+01 +3.5603599653e+00 -5.4711806911e+02 5.6387729783e+02 1.2509998309e+02 1.3605e+02 0.0000e+00
 -1000101  2    1    2    0    0 -5.4375946254e+01 -3.5603599653e+00 -6.2451903947e+02 6.3925225420e+02 1.2509993667e+02 2.9690e+01 0.0000e+00
       11  1    3    3    0    0 +3.7630480880e-02 +9.9173364006e-02 -5.4528168129e-01 5.5550317937e-01 5.1100000000e-04 0.0000e+00 1.0000e+00
      255  1    3    3    0    0 +5.4338315774e+01 +3.4611866013e+00 -5.4657278743e+02 5.6332179465e+02 1.2500000000e+02 0.0000e+00 0.0000e+00
      -11  1    4    4    0    0 +5.3149052770e-02 +1.4104001139e-02 -5.2374331660e-01 5.2662231957e-01 5.1100000000e-04 0.0000e+00 -1.0000e+00
      255  1    4    4    0    0 -5.4429095307e+01 -3.5744639664e+00 -6.2399529615e+02 6.3872563188e+02 1.2500000000e+02 0.0000e+00 0.0000e+00
<mgrwt>
<rscale>  0 0.27347249E+03</rscale>
<asrwt>0</asrwt>
<pdfrwt beam="1">  1        3 0.18267429E+00 0.27347249E+03</pdfrwt>
<pdfrwt beam="2">  1       -3 0.24224966E-02 0.27347249E+03</pdfrwt>
<totfact> 0.36961417E+02</totfact>
</mgrwt>
</event>
<event>
 8      1 +1.6198320e-01 3.83361900e+02 7.81860800e-03 1.04969800e-01
       -2 -1    0    0    0  501 -0.0000000000e+00 +0.0000000000e+00 +3.2234185691e+01 3.2234185791e+01 2.5500000000e-03 0.0000e+00 -1.0000e+00
        2 -1    0    0  501    0 +0.0000000000e+00 -0.0000000000e+00 -1.1398330378e+03 1.1398330378e+03 2.5500000000e-03 0.0000e+00 1.0000e+00
  1000101  2    1    2    0    0 +1.0598556392e+02 -4.7131767174e+01 -2.8661555941e+02 3.3354595572e+02 1.2510028954e+02 1.8144e+01 0.0000e+00
 -1000101  2    1    2    0    0 -1.0598556392e+02 +4.7131767174e+01 -8.2098329270e+02 8.3852126787e+02 1.2509998622e+02 6.2127e+01 0.0000e+00
       11  1    3    3    0    0 +1.1218367616e-01 -7.8709005343e-03 -4.2437627243e-01 4.3902461206e-01 5.1100000000e-04 0.0000e+00 1.0000e+00
      255  1    3    3    0    0 +1.0587338025e+02 -4.7123896273e+01 -2.8619118314e+02 3.3310693110e+02 1.2500000000e+02 0.0000e+00 0.0000e+00
      -11  1    4    4    0    0 -1.5176475465e-01 +7.1541390983e-02 -4.9192870159e-01 5.1975457665e-01 5.1100000000e-04 0.0000e+00 -1.0000e+00
      255  1    4    4    0    0 -1.0583379917e+02 +4.7060225783e+01 -8.2049136400e+02 8.3800151330e+02 1.2500000000e+02 0.0000e+00 0.0000e+00
<mgrwt>
<rscale>  0 0.38336192E+03</rscale>
<asrwt>0</asrwt>
<pdfrwt beam="1">  1        2 0.17535890E+00 0.38336192E+03</pdfrwt>
<pdfrwt beam="2">  1       -2 0.49591064E-02 0.38336192E+03</pdfrwt>
<totfact> 0.43089083E+03</totfact>
</mgrwt>
</event>
<event>
 8      1 +1.6198320e-01 2.55896900e+02 7.81860800e-03 1.10963400e-01
        2 -1    0    0  501    0 +0.0000000000e+00 +0.0000000000e+00 +2.1992678996e+02 2.1992678998e+02 2.5500000000e-03 0.0000e+00 1.0000e+00
       -2 -1    0    0    0  501 -0.0000000000e+00 -0.0000000000e+00 -7.4437532530e+01 7.4437532573e+01 2.5500000000e-03 0.0000e+00 -1.0000e+00
  1000101  2    1    2    0    0 +2.5942930869e+01 +2.8944111106e+00 +7.9966634534e+01 1.5075177852e+02 1.2510005120e+02 5.9704e+01 0.0000e+00
 -1000101  2    1    2    0    0 -2.5942930869e+01 -2.8944111106e+00 +6.5522622900e+01 1.4361254403e+02 1.2509970189e+02 1.9467e+00 0.0000e+00
       11  1    3    3    0    0 +2.1182320409e-02 +9.2806710169e-02 +1.1555751390e-01 1.4971832316e-01 5.1100000000e-04 0.0000e+00 1.0000e+00
      255  1    3    3    0    0 +2.5921748549e+01 +2.8016044004e+00 +7.9851077021e+01 1.5060206020e+02 1.2500000000e+02 0.0000e+00 0.0000e+00
      -11  1    4    4    0    0 +2.9848451382e-02 -6.6111883150e-02 -1.7717468862e-02 7.4671821781e-02 5.1100000000e-04 0.0000e+00 -1.0000e+00
      255  1    4    4    0    0 -2.5972779320e+01 -2.8282992275e+00 +6.5540340369e+01 1.4353787221e+02 1.2500000000e+02 0.0000e+00 0.0000e+00
<mgrwt>
<rscale>  0 0.25589691E+03</rscale>
<asrwt>0</asrwt>
<pdfrwt beam="1">  1        2 0.33834890E-01 0.25589691E+03</pdfrwt>
<pdfrwt beam="2">  1       -2 0.11451928E-01 0.25589691E+03</pdfrwt>
<totfact> 0.80860683E+03</totfact>
</mgrwt>
</event>
<event>
 8      1 +1.6198320e-01 2.88813400e+02 7.81860800e-03 1.09097000e-01
       -2 -1    0    0    0  501 -0.0000000000e+00 +0.0000000000e+00 +2.9292527871e+01 2.9292527982e+01 2.5500000000e-03 0.0000e+00 -1.0000e+00
        2 -1    0    0  501    0 +0.0000000000e+00 -0.0000000000e+00 -7.1189801995e+02 7.1189801996e+02 2.5500000000e-03 0.0000e+00 1.0000e+00
  1000101  2    1    2    0    0 +1.2309561921e+01 -3.1456864593e+01 -1.7773995976e+02 2.1996097686e+02 1.2510107275e+02 1.0716e+02 0.0000e+00
 -1000101  2    1    2    0    0 -1.2309561921e+01 +3.1456864593e+01 -5.0486553233e+02 5.2122957108e+02 1.2509996160e+02 5.3591e+02 0.0000e+00
       11  1    3    3    0    0 -8.2405660255e-02 -6.4711735832e-02 -1.6430587917e-01 1.9487171331e-01 5.1100000000e-04 0.0000e+00 1.0000e+00
      255  1    3    3    0    0 +1.2391967581e+01 -3.1392152857e+01 -1.7757565388e+02 2.1976610515e+02 1.2500000000e+02 0.0000e+00 0.0000e+00
      -11  1    4    4    0    0 +4.7251232455e-04 +3.9843815733e-02 -1.7849739869e-02 4.3664943087e-02 5.1100000000e-04 0.0000e+00 -1.0000e+00
      255  1    4    4    0    0 -1.2310034433e+01 +3.1417020777e+01 -5.0484768259e+02 5.2118590614e+02 1.2500000000e+02 0.0000e+00 0.0000e+00
<mgrwt>
<rscale>  0 0.28881338E+03</rscale>
<asrwt>0</asrwt>
<pdfrwt beam="1">  1        2 0.10952276E+00 0.28881338E+03</pdfrwt>
<pdfrwt beam="2">  1       -2 0.45065433E-02 0.28881338E+03</pdfrwt>
<totfact> 0.94086373E+03</totfact>
</mgrwt>
</event>
<event>
 8      1 +1.6198320e-01 4.21087700e+02 7.81860800e-03 1.03671300e-01
        2 -1    0    0  501    0 +0.0000000000e+00 +0.0000000000e+00 +1.1149346382e+02 1.1149346385e+02 2.5500000000e-03 0.0000e+00 1.0000e+00
       -2 -1    0    0    0  501 -0.0000000000e+00 -0.0000000000e+00 -3.9759021117e+02 3.9759021118e+02 2.5500000000e-03 0.0000e+00 -1.0000e+00
  1000101  2    1    2    0    0 +1.8585523920e+01 -5.5011422555e+01 +4.9277229414e+01 1.4645795256e+02 1.2509999288e+02 0.0000e+00 0.0000e+00
 -1000101  2    1    2    0    0 -1.8585523920e+01 +5.5011422555e+01 -3.3537397676e+02 3.6262572247e+02 1.2510008790e+02 4.7845e+01 0.0000e+00
       11  1    3    3    0    0 +8.1012396047e-02 -1.1115368195e-01 +1.0386152996e-01 1.7235320668e-01 5.1100000000e-04 0.0000e+00 1.0000e+00
      255  1    3    3    0    0 +1.8504511524e+01 -5.4900268873e+01 +4.9173367884e+01 1.4628559935e+02 1.2500000000e+02 0.0000e+00 0.0000e+00
      -11  1    4    4    0    0 +6.7654815431e-02 +2.1161993403e-02 -3.6513002491e-01 3.7194784611e-01 5.1100000000e-04 0.0000e+00 -1.0000e+00
      255  1    4    4    0    0 -1.8653178735e+01 +5.4990260561e+01 -3.3500884674e+02 3.6225377462e+02 1.2500000000e+02 0.0000e+00 0.0000e+00
<mgrwt>
<rscale>  0 0.42108769E+03</rscale>
<asrwt>0</asrwt>
<pdfrwt beam="1">  1        2 0.17152841E-01 0.42108769E+03</pdfrwt>
<pdfrwt beam="2">  1       -2 0.61167724E-01 0.42108769E+03</pdfrwt>
<totfact> 0.84996880E+02</totfact>
</mgrwt>
</event>
<event>
 8      1 +1.6198320e-01 4.37673000e+02 7.81860800e-03 1.03146300e-01
        2 -1    0    0  501    0 +0.0000000000e+00 +0.0000000000e+00 +5.2281361256e+02 5.2281361257e+02 2.5500000000e-03 0.0000e+00 1.0000e+00
       -2 -1    0    0    0  501 -0.0000000000e+00 -0.0000000000e+00 -9.1599410129e+01 9.1599410164e+01 2.5500000000e-03 0.0000e+00 -1.0000e+00
  1000101  2    1    2    0    0 -8.8551286438e+01 +9.6842734360e+01 +4.3563213823e+01 1.8646075937e+02 1.2510002262e+02 5.8747e+01 0.0000e+00
 -1000101  2    1    2    0    0 +8.8551286438e+01 -9.6842734360e+01 +3.8765098861e+02 4.2795226336e+02 1.2509998087e+02 2.3046e+01 0.0000e+00
       11  1    3    3    0    0 -1.5805352184e-01 +6.1205110514e-02 +1.0179880808e-01 1.9771251798e-01 5.1100000000e-04 0.0000e+00 1.0000e+00
      255  1    3    3    0    0 -8.8393232916e+01 +9.6781529250e+01 +4.3461415014e+01 1.8626304686e+02 1.2500000000e+02 0.0000e+00 0.0000e+00
      -11  1    4    4    0    0 -4.3985175525e-02 +3.4914666950e-03 +1.2478382465e-01 1.3235614841e-01 5.1100000000e-04 0.0000e+00 -1.0000e+00
      255  1    4    4    0    0 +8.8595271613e+01 -9.6846225827e+01 +3.8752620478e+02 4.2781990721e+02 1.2500000000e+02 0.0000e+00 0.0000e+00
<mgrwt>
<rscale>  0 0.43767302E+03</rscale>
<asrwt>0</asrwt>
<pdfrwt beam="1">  1        2 0.80432862E-01 0.43767302E+03</pdfrwt>
<pdfrwt beam="2">  1       -2 0.14092217E-01 0.43767302E+03</pdfrwt>
<totfact> 0.22606248E+03</totfact>
</mgrwt>
</event>
<event>
 8      1 +1.6198320e-01 2.52683600e+02 7.81860800e-03 1.11162100e-01
       -2 -1    0    0    0  501 -0.0000000000e+00 +0.0000000000e+00 +7.0053917718e+00 7.0053922359e+00 2.5500000000e-03 0.0000e+00 -1.0000e+00
        2 -1    0    0  501    0 +0.0000000000e+00 -0.0000000000e+00 -2.2785662436e+03 2.2785662436e+03 2.5500000000e-03 0.0000e+00 1.0000e+00
  1000101  2    1    2    0    0 +1.0991006856e+01 +1.3084211844e+01 -1.0950854699e+03 1.1023403302e+03 1.2510003378e+02 6.8936e+01 0.0000e+00
 -1000101  2    1    2    0    0 -1.0991006856e+01 -1.3084211844e+01 -1.1764753819e+03 1.1832313056e+03 1.2509995778e+02 3.6958e+01 0.0000e+00
       11  1    3    3    0    0 +9.0895684371e-02 -1.5066772730e-02 -1.3616841571e+00 1.3647978011e+00 5.1100000000e-04 0.0000e+00 1.0000e+00
      255  1    3    3    0    0 +1.0900111172e+01 +1.3099278616e+01 -1.0937237857e+03 1.1009755324e+03 1.2500000000e+02 0.0000e+00 0.0000e+00
      -11  1    4    4    0    0 -2.3309189969e-02 -4.5272322247e-02 -1.1685052352e-01 1.2746453415e-01 5.1100000000e-04 0.0000e+00 -1.0000e+00
      255  1    4    4    0    0 -1.0967697667e+01 -1.3038939521e+01 -1.1763585314e+03 1.1831038411e+03 1.2500000000e+02 0.0000e+00 0.0000e+00
<mgrwt>
<rscale>  0 0.25268359E+03</rscale>
<asrwt>0</asrwt>
<pdfrwt beam="1">  1        2 0.35054806E+00 0.25268359E+03</pdfrwt>
<pdfrwt beam="2">  1       -2 0.10777544E-02 0.25268359E+03</pdfrwt>
<totfact> 0.10097347E+04</totfact>
</mgrwt>
</event>
<event>
 8      1 +1.6198320e-01 4.63810400e+02 7.81860800e-03 1.02368200e-01
       -2 -1    0    0    0  501 -0.0000000000e+00 +0.0000000000e+00 +1.0122955083e+02 1.0122955087e+02 2.5500000000e-03 0.0000e+00 -1.0000e+00
        2 -1    0    0  501    0 +0.0000000000e+00 -0.0000000000e+00 -5.3126791061e+02 5.3126791062e+02 2.5500000000e-03 0.0000e+00 1.0000e+00
  1000101  2    1    2    0    0 +3.5362286121e+01 +1.3072675357e+02 -4.0686003167e+02 4.4668230273e+02 1.2510003527e+02 1.7695e+02 0.0000e+00
 -1000101  2    1    2    0    0 -3.5362286121e+01 -1.3072675357e+02 -2.3178328108e+01 1.8581515875e+02 1.2510021163e+02 6.4410e+01 0.0000e+00
       11  1    3    3    0    0 +8.1736215277e-02 +2.1350742380e-03 -2.4432790182e-01 2.5764656442e-01 5.1100000000e-04 0.0000e+00 1.0000e+00
      255  1    3    3    0    0 +3.5280549906e+01 +1.3072461850e+02 -4.0661570376e+02 4.4642465616e+02 1.2500000000e+02 0.0000e+00 0.0000e+00
      -11  1    4    4    0    0 -1.1271748159e-01 -2.0901097732e-01 -4.2452951761e-02 2.4123294454e-01 5.1100000000e-04 0.0000e+00 -1.0000e+00
      255  1    4    4    0    0 -3.5249568640e+01 -1.3051774259e+02 -2.3135875156e+01 1.8557392581e+02 1.2500000000e+02 0.0000e+00 0.0000e+00
<mgrwt>
<rscale>  0 0.46381036E+03</rscale>
<asrwt>0</asrwt>
<pdfrwt beam="1">  1        2 0.81733523E-01 0.46381036E+03</pdfrwt>
<pdfrwt beam="2">  1       -2 0.15573777E-01 0.46381036E+03</pdfrwt>
<totfact> 0.18785330E+03</totfact>
</mgrwt>
</event>
<event>
 8      1 +1.6198320e-01 2.73006300e+02 7.81860800e-03 1.09957100e-01
        1 -1    0    0  501    0 +0.0000000000e+00 +0.0000000000e+00 +4.0277772985e+02 4.0277772988e+02 5.0400000000e-03 0.0000e+00 -1.0000e+00
       -1 -1    0    0    0  501 -0.0000000000e+00 -0.0000000000e+00 -4.6261515689e+01 4.6261515964e+01 5.0400000000e-03 0.0000e+00 1.0000e+00
  1000101  2    1    2    0    0 -4.9332206162e+01 +1.6247744903e+01 +1.5047017545e+02 2.0245725895e+02 1.2510000888e+02 9.2877e+01 0.0000e+00
 -1000101  2    1    2    0    0 +4.9332206162e+01 -1.6247744903e+01 +2.0604603870e+02 2.4658198689e+02 1.2510016152e+02 1.6841e+02 0.0000e+00
       11  1    3    3    0    0 -2.9345687392e-02 -1.8059675886e-02 -2.9632352253e-02 4.5449517959e-02 5.1100000000e-04 0.0000e+00 1.0000e+00
      255  1    3    3    0    0 -4.9302860475e+01 +1.6265804579e+01 +1.5049980780e+02 2.0241180943e+02 1.2500000000e+02 0.0000e+00 0.0000e+00
      -11  1    4    4    0    0 +1.3251546586e-01 +9.2234039227e-05 +3.0024057646e-01 3.2818443302e-01 5.1100000000e-04 0.0000e+00 -1.0000e+00
      255  1    4    4    0    0 +4.9199690696e+01 -1.6247837137e+01 +2.0574579813e+02 2.4625380246e+02 1.2500000000e+02 0.0000e+00 0.0000e+00
<mgrwt>
<rscale>  0 0.27300629E+03</rscale>
<asrwt>0</asrwt>
<pdfrwt beam="1">  1        1 0.61965803E-01 0.27300629E+03</pdfrwt>
<pdfrwt beam="2">  1       -1 0.71171565E-02 0.27300629E+03</pdfrwt>
<totfact> 0.61478447E+03</totfact>
</mgrwt>
</event>
<event>
 8      1 +1.6198320e-01 3.97294000e+02 7.81860800e-03 1.04472100e-01
        2 -1    0    0  501    0 +0.0000000000e+00 +0.0000000000e+00 +7.2469101517e+02 7.2469101518e+02 2.5500000000e-03 0.0000e+00 1.0000e+00
       -2 -1    0    0    0  501 -0.0000000000e+00 -0.0000000000e+00 -5.4451653359e+01 5.4451653419e+01 2.5500000000e-03 0.0000e+00 -1.0000e+00
  1000101  2    1    2    0    0 +1.2472648655e+02 -1.1357002281e+01 +5.1189242409e+02 5.4163599721e+02 1.2510004671e+02 5.5618e+01 0.0000e+00
 -1000101  2    1    2    0    0 -1.2472648655e+02 +1.1357002281e+01 +1.5834693773e+02 2.3750667139e+02 1.2509991334e+02 2.3394e+02 0.0000e+00
       11  1    3    3    0    0 +1.0319637712e-01 -7.4100150625e-02 +6.6151149148e-01 6.7360080096e-01 5.1100000000e-04 0.0000e+00 1.0000e+00
      255  1    3    3    0    0 +1.2462329017e+02 -1.1282902130e+01 +5.1123091260e+02 5.4096239641e+02 1.2500000000e+02 0.0000e+00 0.0000e+00
      -11  1    4    4    0    0 -9.9548037585e-02 +9.9136144695e-02 +7.3159473898e-02 1.5839935831e-01 5.1100000000e-04 0.0000e+00 -1.0000e+00
      255  1    4    4    0    0 -1.2462693851e+02 +1.1257866136e+01 +1.5827377826e+02 2.3734827203e+02 1.2500000000e+02 0.0000e+00 0.0000e+00
<mgrwt>
<rscale>  0 0.39729397E+03</rscale>
<asrwt>0</asrwt>
<pdfrwt beam="1">  1        2 0.11149092E+00 0.39729397E+03</pdfrwt>
<pdfrwt beam="2">  1       -2 0.83771780E-02 0.39729397E+03</pdfrwt>
<totfact> 0.35527354E+03</totfact>
</mgrwt>
</event>
<event>
 8      1 +1.6198320e-01 4.20579300e+02 7.81860800e-03 1.03687800e-01
       -2 -1    0    0    0  501 -0.0000000000e+00 +0.0000000000e+00 +5.1831796530e+01 5.1831796592e+01 2.5500000000e-03 0.0000e+00 -1.0000e+00
        2 -1    0    0  501    0 +0.0000000000e+00 -0.0000000000e+00 -8.5317780444e+02 8.5317780444e+02 2.5500000000e-03 0.0000e+00 1.0000e+00
  1000101  2    1    2    0    0 -6.4240021097e+00 +1.4218047706e+02 -5.9689171861e+02 6.2624779209e+02 1.2510002996e+02 9.5014e+01 0.0000e+00
 -1000101  2    1    2    0    0 +6.4240021097e+00 -1.4218047706e+02 -2.0445428930e+02 2.7876180894e+02 1.2510009533e+02 6.7085e+01 0.0000e+00
       11  1    3    3    0    0 +5.3594656111e-02 +2.0979505970e-01 -8.5396549426e-01 8.8099017063e-01 5.1100000000e-04 0.0000e+00 1.0000e+00
      255  1    3    3    0    0 -6.4775967658e+00 +1.4197068200e+02 -5.9603775312e+02 6.2536680192e+02 1.2500000000e+02 0.0000e+00 0.0000e+00
      -11  1    4    4    0    0 -5.5972523982e-02 -1.4335172742e-01 -7.3198318796e-02 1.7041389671e-01 5.1100000000e-04 0.0000e+00 -1.0000e+00
      255  1    4    4    0    0 +6.4799746337e+00 -1.4203712533e+02 -2.0438109098e+02 2.7859139504e+02 1.2500000000e+02 0.0000e+00 0.0000e+00
<mgrwt>
<rscale>  0 0.42057931E+03</rscale>
<asrwt>0</asrwt>
<pdfrwt beam="1">  1        2 0.13125811E+00 0.42057931E+03</pdfrwt>
<pdfrwt beam="2">  1       -2 0.79741232E-02 0.42057931E+03</pdfrwt>
<totfact> 0.31147203E+03</totfact>
</mgrwt>
</event>
<event>
 8      1 +1.6198320e-01 3.82071400e+02 7.81860800e-03 1.05017100e-01
        2 -1    0    0  501    0 +0.0000000000e+00 +0.0000000000e+00 +3.8514569959e+03 3.8514569959e+03 2.5500000000e-03 0.0000e+00 1.0000e+00
       -2 -1    0    0    0  501 -0.0000000000e+00 -0.0000000000e+00 -9.4755425786e+00 9.4755429217e+00 2.5500000000e-03 0.0000e+00 -1.0000e+00
  1000101  2    1    2    0    0 -3.8932323221e+01 +1.1431095341e+02 +1.1213371280e+03 1.1347377136e+03 1.2509997717e+02 2.4501e+00 0.0000e+00
 -1000101  2    1    2    0    0 +3.8932323221e+01 -1.1431095341e+02 +2.7206443254e+03 2.7261948252e+03 1.2509980026e+02 7.1996e+01 0.0000e+00
       11  1    3    3    0    0 -7.9006253506e-02 +2.1173729173e-01 +1.7083108449e+00 1.7231949607e+00 5.1100000000e-04 0.0000e+00 1.0000e+00
      255  1    3    3    0    0 -3.8853316968e+01 +1.1409921612e+02 +1.1196288171e+03 1.1330145187e+03 1.2500000000e+02 0.0000e+00 0.0000e+00
      -11  1    4    4    0    0 -1.9393779534e-02 -1.6275023290e-01 +1.7935836175e+00 1.8010569705e+00 5.1100000000e-04 0.0000e+00 -1.0000e+00
      255  1    4    4    0    0 +3.8951717001e+01 -1.1414820318e+02 +2.7188507418e+03 2.7243937683e+03 1.2500000000e+02 0.0000e+00 0.0000e+00
<mgrwt>
<rscale>  0 0.38207144E+03</rscale>
<asrwt>0</asrwt>
<pdfrwt beam="1">  1        2 0.59253238E+00 0.38207144E+03</pdfrwt>
<pdfrwt beam="2">  1       -2 0.14577745E-02 0.38207144E+03</pdfrwt>
<totfact> 0.69419614E+02</totfact>
</mgrwt>
</event>
<event>
 8      1 +1.6198320e-01 3.21479700e+02 7.81860800e-03 1.07497000e-01
        1 -1    0    0  501    0 +0.0000000000e+00 +0.0000000000e+00 +1.3382459182e+02 1.3382459192e+02 5.0400000000e-03 0.0000e+00 -1.0000e+00
       -1 -1    0    0    0  501 -0.0000000000e+00 -0.0000000000e+00 -1.9306835914e+02 1.9306835920e+02 5.0400000000e-03 0.0000e+00 1.0000e+00
  1000101  2    1    2    0    0 +7.3402966022e+00 -2.1498663972e+01 -1.2962040725e+02 1.8156960502e+02 1.2509995598e+02 4.4908e+01 0.0000e+00
 -1000101  2    1    2    0    0 -7.3402966022e+00 +2.1498663972e+01 +7.0376639939e+01 1.4532334610e+02 1.2509968411e+02 7.7801e+01 0.0000e+00
       11  1    3    3    0    0 +2.1204983812e-02 +8.1180835367e-02 -1.1311748016e-01 1.4083964217e-01 5.1100000000e-04 0.0000e+00 1.0000e+00
      255  1    3    3    0    0 +7.3190916183e+00 -2.1579844808e+01 -1.2950728977e+02 1.8142876538e+02 1.2500000000e+02 0.0000e+00 0.0000e+00
      -11  1    4    4    0    0 +6.5119696201e-03 +5.6382491061e-02 +1.6327601523e-01 1.7286037521e-01 5.1100000000e-04 0.0000e+00 -1.0000e+00
      255  1    4    4    0    0 -7.3468085718e+00 +2.1442281481e+01 +7.0213363923e+01 1.4515048572e+02 1.2500000000e+02 0.0000e+00 0.0000e+00
<mgrwt>
<rscale>  0 0.32147967E+03</rscale>
<asrwt>0</asrwt>
<pdfrwt beam="1">  1        1 0.20588399E-01 0.32147967E+03</pdfrwt>
<pdfrwt beam="2">  1       -1 0.29702824E-01 0.32147967E+03</pdfrwt>
<totfact> 0.25590305E+03</totfact>
</mgrwt>
</event>
<event>
 8      1 +1.6198320e-01 4.72422100e+02 7.81860800e-03 1.02123900e-01
       -4 -1    0    0    0  501 -0.0000000000e+00 +0.0000000000e+00 +2.7917938630e+02 2.7918227493e+02 1.2700000000e+00 0.0000e+00 -1.0000e+00
        4 -1    0    0  501    0 +0.0000000000e+00 -0.0000000000e+00 -1.9985000753e+02 1.9985404276e+02 1.2700000000e+00 0.0000e+00 1.0000e+00
  1000101  2    1    2    0    0 -1.2161242040e+02 -1.4629456498e+02 +1.0342555112e+02 2.5007708806e+02 1.2510005920e+02 1.7579e+01 0.0000e+00
 -1000101  2    1    2    0    0 +1.2161242040e+02 +1.4629456498e+02 -2.4096172350e+01 2.2895922963e+02 1.2510005106e+02 2.4344e+01 0.0000e+00
       11  1    3    3    0    0 -1.0246358360e-01 -4.0692545772e-02 -2.5439141428e-02 1.1314627826e-01 5.1100000000e-04 0.0000e+00 1.0000e+00
      255  1    3    3    0    0 -1.2150995681e+02 -1.4625387243e+02 +1.0345099026e+02 2.4996394178e+02 1.2500000000e+02 0.0000e+00 0.0000e+00
      -11  1    4    4    0    0 +7.4592731368e-03 -3.3612993865e-02 -1.8464579523e-02 3.9072700574e-02 5.1100000000e-04 0.0000e+00 -1.0000e+00
      255  1    4    4    0    0 +1.2160496112e+02 +1.4632817797e+02 -2.4077707770e+01 2.2892015693e+02 1.2500000000e+02 0.0000e+00 0.0000e+00
<mgrwt>
<rscale>  0 0.47242210E+03</rscale>
<asrwt>0</asrwt>
<pdfrwt beam="1">  1        4 0.30746688E-01 0.47242210E+03</pdfrwt>
<pdfrwt beam="2">  1       -4 0.42951208E-01 0.47242210E+03</pdfrwt>
<totfact> 0.10480793E+02</totfact>
</mgrwt>
</event>
<event>
 8      1 +1.6198320e-01 4.71307600e+02 7.81860800e-03 1.02155200e-01
       -2 -1    0    0    0  501 -0.0000000000e+00 +0.0000000000e+00 +1.0269527745e+02 1.0269527748e+02 2.5500000000e-03 0.0000e+00 -1.0000e+00
        2 -1    0    0  501    0 +0.0000000000e+00 -0.0000000000e+00 -5.4075231945e+02 5.4075231945e+02 2.5500000000e-03 0.0000e+00 1.0000e+00
  1000101  2    1    2    0    0 -1.3159667188e+02 -1.3806053427e+02 -1.3820982159e+02 2.6670263135e+02 1.2509973468e+02 2.0849e+02 0.0000e+00
 -1000101  2    1    2    0    0 +1.3159667188e+02 +1.3806053427e+02 -2.9984722041e+02 3.7674496558e+02 1.2510003329e+02 3.0984e+01 0.0000e+00
       11  1    3    3    0    0 -8.1019470812e-02 +1.3062874019e-02 -1.0908040686e-01 1.3650490691e-01 5.1100000000e-04 0.0000e+00 1.0000e+00
      255  1    3    3    0    0 -1.3151565241e+02 -1.3807359714e+02 -1.3810074118e+02 2.6656612645e+02 1.2500000000e+02 0.0000e+00 0.0000e+00
      -11  1    4    4    0    0 +5.5612529893e-02 +4.3346143090e-02 -2.5699550842e-03 7.0558538761e-02 5.1100000000e-04 0.0000e+00 -1.0000e+00
      255  1    4    4    0    0 +1.3154105935e+02 +1.3801718812e+02 -2.9984465046e+02 3.7667440704e+02 1.2500000000e+02 0.0000e+00 0.0000e+00
<mgrwt>
<rscale>  0 0.47130758E+03</rscale>
<asrwt>0</asrwt>
<pdfrwt beam="1">  1        2 0.83192663E-01 0.47130758E+03</pdfrwt>
<pdfrwt beam="2">  1       -2 0.15799274E-01 0.47130758E+03</pdfrwt>
<totfact> 0.17965894E+03</totfact>
</mgrwt>
</event>
<event>
 8      1 +1.6198320e-01 5.06712900e+02 7.81860800e-03 1.01204100e-01
        2 -1    0    0  501    0 +0.0000000000e+00 +0.0000000000e+00 +1.4187581262e+03 1.4187581263e+03 2.5500000000e-03 0.0000e+00 1.0000e+00
       -2 -1    0    0    0  501 -0.0000000000e+00 -0.0000000000e+00 -4.5243433079e+01 4.5243433150e+01 2.5500000000e-03 0.0000e+00 -1.0000e+00
  1000101  2    1    2    0    0 -1.6211679934e+02 +1.0081833471e+02 +3.6903231838e+02 4.3391367170e+02 1.2510007689e+02 3.7555e+01 0.0000e+00
 -1000101  2    1    2    0    0 +1.6211679934e+02 -1.0081833471e+02 +1.0044823748e+03 1.0300878877e+03 1.2510004750e+02 6.4213e+01 0.0000e+00
       11  1    3    3    0    0 -3.6428423560e-02 +4.8224743802e-02 +8.7096966117e-03 6.1063703570e-02 5.1100000000e-04 0.0000e+00 1.0000e+00
      255  1    3    3    0    0 -1.6208037091e+02 +1.0077010997e+02 +3.6902360868e+02 4.3385260800e+02 1.2500000000e+02 0.0000e+00 0.0000e+00
      -11  1    4    4    0    0 -1.0993836485e-02 -8.2296661819e-02 +3.3356619864e-01 3.4374449084e-01 5.1100000000e-04 0.0000e+00 -1.0000e+00
      255  1    4    4    0    0 +1.6212779317e+02 -1.0073603805e+02 +1.0041488086e+03 1.0297441432e+03 1.2500000000e+02 0.0000e+00 0.0000e+00
<mgrwt>
<rscale>  0 0.50671289E+03</rscale>
<asrwt>0</asrwt>
<pdfrwt beam="1">  1        2 0.21827049E+00 0.50671289E+03</pdfrwt>
<pdfrwt beam="2">  1       -2 0.69605278E-02 0.50671289E+03</pdfrwt>
<totfact> 0.17635699E+03</totfact>
</mgrwt>
</event>
<event>
 8      1 +1.6198320e-01 3.15136200e+02 7.81860800e-03 1.07791000e-01
       -4 -1    0    0    0  501 -0.0000000000e+00 +0.0000000000e+00 +1.5308639753e+02 1.5309166538e+02 1.2700000000e+00 0.0000e+00 -1.0000e+00
        4 -1    0    0  501    0 +0.0000000000e+00 -0.0000000000e+00 -1.6217043150e+02 1.6217540428e+02 1.2700000000e+00 0.0000e+00 1.0000e+00
  1000101  2    1    2    0    0 +7.4205771299e+00 -1.3576092320e+01 -9.9124152385e+01 1.6035893614e+02 1.2510002224e+02 4.7852e+01 0.0000e+00
 -1000101  2    1    2    0    0 -7.4205771299e+00 +1.3576092320e+01 +9.0040118420e+01 1.5490813352e+02 1.2509968689e+02 1.2614e+01 0.0000e+00
       11  1    3    3    0    0 +7.1376900036e-02 +6.4835971722e-02 -7.8064706923e-02 1.2406741988e-01 5.1100000000e-04 0.0000e+00 1.0000e+00
      255  1    3    3    0    0 +7.3492002299e+00 -1.3640928292e+01 -9.9046087678e+01 1.6023486872e+02 1.2500000000e+02 0.0000e+00 0.0000e+00
      -11  1    4    4    0    0 -9.9714445922e-02 -1.6206821789e-02 +4.8797848022e-02 1.1219234774e-01 5.1100000000e-04 0.0000e+00 -1.0000e+00
      255  1    4    4    0    0 -7.3208626840e+00 +1.3592299142e+01 +8.9991320572e+01 1.5479594118e+02 1.2500000000e+02 0.0000e+00 0.0000e+00
<mgrwt>
<rscale>  0 0.31513617E+03</rscale>
<asrwt>0</asrwt>
<pdfrwt beam="1">  1        4 0.24950085E-01 0.31513617E+03</pdfrwt>
<pdfrwt beam="2">  1       -4 0.23552541E-01 0.31513617E+03</pdfrwt>
<totfact> 0.47939935E+02</totfact>
</mgrwt>
</event>
<event>
 8      1 +1.6198320e-01 2.84500100e+02 7.81860800e-03 1.09325600e-01
        2 -1    0    0  501    0 +0.0000000000e+00 +0.0000000000e+00 +4.0492462135e+02 4.0492462136e+02 2.5500000000e-03 0.0000e+00 1.0000e+00
       -2 -1    0    0    0  501 -0.0000000000e+00 -0.0000000000e+00 -4.9972438012e+01 4.9972438077e+01 2.5500000000e-03 0.0000e+00 -1.0000e+00
  1000101  2    1    2    0    0 -1.2041711518e+01 +6.2536042187e+01 +2.1426201199e+02 2.5615227432e+02 1.2510003383e+02 6.1366e+01 0.0000e+00
 -1000101  2    1    2    0    0 +1.2041711518e+01 -6.2536042187e+01 +1.4069017134e+02 1.9874478512e+02 1.2509998365e+02 9.8395e+00 0.0000e+00
       11  1    3    3    0    0 +5.2956117528e-02 +1.3311505923e-01 +1.9550413557e-01 2.4237594254e-01 5.1100000000e-04 0.0000e+00 1.0000e+00
      255  1    3    3    0    0 -1.2094667635e+01 +6.2402927128e+01 +2.1406650786e+02 2.5590989837e+02 1.2500000000e+02 0.0000e+00 0.0000e+00
      -11  1    4    4    0    0 -2.1995398786e-02 +3.7125227433e-02 -8.3824296736e-03 4.3961418625e-02 5.1100000000e-04 0.0000e+00 -1.0000e+00
      255  1    4    4    0    0 +1.2063706916e+01 -6.2573167415e+01 +1.4069855377e+02 1.9870082370e+02 1.2500000000e+02 0.0000e+00 0.0000e+00
<mgrwt>
<rscale>  0 0.28450006E+03</rscale>
<asrwt>0</asrwt>
<pdfrwt beam="1">  1        2 0.62296095E-01 0.28450006E+03</pdfrwt>
<pdfrwt beam="2">  1       -2 0.76880675E-02 0.28450006E+03</pdfrwt>
<totfact> 0.78896082E+03</totfact>
</mgrwt>
</event>
<event>
 8      1 +1.6198320e-01 3.41330800e+02 7.81860800e-03 1.06623100e-01
       -1 -1    0    0    0  501 -0.0000000000e+00 +0.0000000000e+00 +3.9794555179e+02 3.9794555182e+02 5.0400000000e-03 0.0000e+00 -1.0000e+00
        1 -1    0    0  501    0 +0.0000000000e+00 -0.0000000000e+00 -7.3192606111e+01 7.3192606285e+01 5.0400000000e-03 0.0000e+00 1.0000e+00
  1000101  2    1    2    0    0 -1.3314779414e+01 +1.1384172808e+01 +3.2077896309e+02 3.4475504207e+02 1.2510001251e+02 7.0086e+01 0.0000e+00
 -1000101  2    1    2    0    0 +1.3314779414e+01 -1.1384172808e+01 +3.9739825822e+00 1.2638311603e+02 1.2510002693e+02 2.9959e+02 0.0000e+00
       11  1    3    3    0    0 -1.7918521728e-02 -8.5066107584e-03 -1.3585510488e-02 2.4047100947e-02 5.1100000000e-04 0.0000e+00 1.0000e+00
      255  1    3    3    0    0 -1.3296860892e+01 +1.1392679418e+01 +3.2079254861e+02 3.4473099497e+02 1.2500000000e+02 0.0000e+00 0.0000e+00
      -11  1    4    4    0    0 -7.1978941207e-02 -6.4892031862e-02 +1.1525763080e-02 9.7596352966e-02 5.1100000000e-04 0.0000e+00 -1.0000e+00
      255  1    4    4    0    0 +1.3386758355e+01 -1.1319280776e+01 +3.9624568191e+00 1.2628551968e+02 1.2500000000e+02 0.0000e+00 0.0000e+00
<mgrwt>
<rscale>  0 0.34133076E+03</rscale>
<asrwt>0</asrwt>
<pdfrwt beam="1">  1        1 0.11260401E-01 0.34133076E+03</pdfrwt>
<pdfrwt beam="2">  1       -1 0.61222393E-01 0.34133076E+03</pdfrwt>
<totfact> 0.15321548E+03</totfact>
</mgrwt>
</event>
<event>
 8      1 +1.6198320e-01 2.79287400e+02 7.81860800e-03 1.09607900e-01
        1 -1    0    0  501    0 +0.0000000000e+00 +0.0000000000e+00 +1.6037097439e+02 1.6037097447e+02 5.0400000000e-03 0.0000e+00 1.0000e+00
       -1 -1    0    0    0  501 -0.0000000000e+00 -0.0000000000e+00 -1.2159537264e+02 1.2159537274e+02 5.0400000000e-03 0.0000e+00 -1.0000e+00
  1000101  2    1    2    0    0 +4.3901170862e+01 -4.3753708916e+01 +2.2357727393e+01 1.4139159930e+02 1.2510002611e+02 4.2317e+01 0.0000e+00
 -1000101  2    1    2    0    0 -4.3901170862e+01 +4.3753708916e+01 +1.6417874361e+01 1.4057474791e+02 1.2510001321e+02 4.8327e+01 0.0000e+00
       11  1    3    3    0    0 -2.0829527080e-02 -5.7004824025e-02 +9.7800994488e-02 1.1510306167e-01 5.1100000000e-04 0.0000e+00 1.0000e+00
      255  1    3    3    0    0 +4.3922000389e+01 -4.3696704092e+01 +2.2259926398e+01 1.4127649624e+02 1.2500000000e+02 0.0000e+00 0.0000e+00
      -11  1    4    4    0    0 -7.9892260982e-02 +1.3481284311e-01 +2.7268062987e-02 1.5906314599e-01 5.1100000000e-04 0.0000e+00 -1.0000e+00
      255  1    4    4    0    0 -4.3821278601e+01 +4.3618896073e+01 +1.6390606298e+01 1.4041568476e+02 1.2500000000e+02 0.0000e+00 0.0000e+00
<mgrwt>
<rscale>  0 0.27928744E+03</rscale>
<asrwt>0</asrwt>
<pdfrwt beam="1">  1        1 0.24672458E-01 0.27928744E+03</pdfrwt>
<pdfrwt beam="2">  1       -1 0.18706980E-01 0.27928744E+03</pdfrwt>
<totfact> 0.43526360E+03</totfact>
</mgrwt>
</event>
<event>
 8      1 +1.6198320e-01 2.81676800e+02 7.81860800e-03 1.09477700e-01
        2 -1    0    0  501    0 +0.0000000000e+00 +0.0000000000e+00 +1.0929916253e+03 1.0929916253e+03 2.5500000000e-03 0.0000e+00 1.0000e+00
       -2 -1    0    0    0  501 -0.0000000000e+00 -0.0000000000e+00 -1.8147854305e+01 1.8147854484e+01 2.5500000000e-03 0.0000e+00 -1.0000e+00
  1000101  2    1    2    0    0 +5.1864156873e+01 +2.0696109672e+01 +6.6629039428e+02 6.8022869989e+02 1.2509985979e+02 1.1339e+01 0.0000e+00
 -1000101  2    1    2    0    0 -5.1864156873e+01 -2.0696109672e+01 +4.0855337668e+02 4.3091077987e+02 1.2510003550e+02 9.2880e+01 0.0000e+00
       11  1    3    3    0    0 +1.2740585289e-02 -2.9338337771e-02 +1.9342188528e-02 3.7382374928e-02 5.1100000000e-04 0.0000e+00 1.0000e+00
      255  1    3    3    0    0 +5.1851416288e+01 +2.0725448010e+01 +6.6627105210e+02 6.8019131752e+02 1.2500000000e+02 0.0000e+00 0.0000e+00
      -11  1    4    4    0    0 -7.7007502511e-02 -9.6197262236e-02 +2.2916475476e-01 2.6019380210e-01 5.1100000000e-04 0.0000e+00 -1.0000e+00
      255  1    4    4    0    0 -5.1787149371e+01 -2.0599912410e+01 +4.0832421193e+02 4.3065058607e+02 1.2500000000e+02 0.0000e+00 0.0000e+00
<mgrwt>
<rscale>  0 0.28167679E+03</rscale>
<asrwt>0</asrwt>
<pdfrwt beam="1">  1        2 0.16815260E+00 0.28167679E+03</pdfrwt>
<pdfrwt beam="2">  1       -2 0.27919768E-02 0.28167679E+03</pdfrwt>
<totfact> 0.10864725E+04</totfact>
</mgrwt>
</event>
<event>
 8      1 +1.6198320e-01 3.88637700e+02 7.81860800e-03 1.04778700e-01
        2 -1    0    0  501    0 +0.0000000000e+00 +0.0000000000e+00 +4.0901646325e+02 4.0901646326e+02 2.5500000000e-03 0.0000e+00 1.0000e+00
       -2 -1    0    0    0  501 -0.0000000000e+00 -0.0000000000e+00 -9.2318567018e+01 9.2318567054e+01 2.5500000000e-03 0.0000e+00 -1.0000e+00
  1000101  2    1    2    0    0 +9.9604307711e+01 +3.8490924549e+01 +2.9183075110e+02 3.3498922934e+02 1.2510006833e+02 1.5275e+02 0.0000e+00
 -1000101  2    1    2    0    0 -9.9604307711e+01 -3.8490924549e+01 +2.4867145129e+01 1.6634580097e+02 1.2509988492e+02 2.1295e+01 0.0000e+00
       11  1    3    3    0    0 +1.5536378125e-01 +5.9325337644e-02 +4.8714535443e-01 5.1475067525e-01 5.1100000000e-04 0.0000e+00 1.0000e+00
      255  1    3    3    0    0 +9.9448943930e+01 +3.8431599211e+01 +2.9134360575e+02 3.3447447867e+02 1.2500000000e+02 0.0000e+00 0.0000e+00
      -11  1    4    4    0    0 -1.9253160565e-01 -7.2065099239e-02 +7.1941257859e-02 2.1780175253e-01 5.1100000000e-04 0.0000e+00 -1.0000e+00
      255  1    4    4    0    0 -9.9411776106e+01 -3.8418859450e+01 +2.4795203871e+01 1.6612799922e+02 1.2500000000e+02 0.0000e+00 0.0000e+00
<mgrwt>
<rscale>  0 0.38863769E+03</rscale>
<asrwt>0</asrwt>
<pdfrwt beam="1">  1        2 0.62925609E-01 0.38863769E+03</pdfrwt>
<pdfrwt beam="2">  1       -2 0.14202857E-01 0.38863769E+03</pdfrwt>
<totfact> 0.29365668E+03</totfact>
</mgrwt>
</event>
<event>
 8      1 +1.6198320e-01 2.75636400e+02 7.81860800e-03 1.09809600e-01
       -1 -1    0    0    0  501 -0.0000000000e+00 +0.0000000000e+00 +9.5112477523e+01 9.5112477656e+01 5.0400000000e-03 0.0000e+00 1.0000e+00
        1 -1    0    0  501    0 +0.0000000000e+00 -0.0000000000e+00 -1.9969882923e+02 1.9969882929e+02 5.0400000000e-03 0.0000e+00 -1.0000e+00
  1000101  2    1    2    0    0 -4.9370627655e+01 -1.7921716220e+01 -7.8165497439e+01 1.5658424053e+02 1.2510049003e+02 5.3635e+01 0.0000e+00
 -1000101  2    1    2    0    0 +4.9370627655e+01 +1.7921716220e+01 -2.6420854266e+01 1.3822706642e+02 1.2510001424e+02 4.7188e+01 0.0000e+00
       11  1    3    3    0    0 -6.5037650111e-02 -9.8233179535e-02 -1.3093952681e-02 1.1853845879e-01 5.1100000000e-04 0.0000e+00 1.0000e+00
      255  1    3    3    0    0 -4.9305590005e+01 -1.7823483040e+01 -7.8152403486e+01 1.5646570207e+02 1.2500000000e+02 0.0000e+00 0.0000e+00
      -11  1    4    4    0    0 +2.2842926143e-02 +6.3311067689e-02 -1.0835495578e-01 1.2755841066e-01 5.1100000000e-04 0.0000e+00 -1.0000e+00
      255  1    4    4    0    0 +4.9347784729e+01 +1.7858405152e+01 -2.6312499310e+01 1.3809950801e+02 1.2500000000e+02 0.0000e+00 0.0000e+00
<mgrwt>
<rscale>  0 0.27563636E+03</rscale>
<asrwt>0</asrwt>
<pdfrwt beam="1">  1        1 0.30722897E-01 0.27563636E+03</pdfrwt>
<pdfrwt beam="2">  1       -1 0.14632689E-01 0.27563636E+03</pdfrwt>
<totfact> 0.48810350E+03</totfact>
</mgrwt>
</event>
<event>
 8      1 +1.6198320e-01 2.68669300e+02 7.81860800e-03 1.10204400e-01
        2 -1    0    0  501    0 +0.0000000000e+00 +0.0000000000e+00 +9.1878791866e+02 9.1878791866e+02 2.5500000000e-03 0.0000e+00 1.0000e+00
       -2 -1    0    0    0  501 -0.0000000000e+00 -0.0000000000e+00 -1.9640880097e+01 1.9640880262e+01 2.5500000000e-03 0.0000e+00 -1.0000e+00
  1000101  2    1    2    0    0 +2.1970948740e+00 -4.1471264372e+01 +5.4005757119e+02 5.5591086935e+02 1.2510004584e+02 2.0249e+02 0.0000e+00
 -1000101  2    1    2    0    0 -2.1970948740e+00 +4.1471264372e+01 +3.5908946737e+02 3.8251792957e+02 1.2510007143e+02 7.5866e+01 0.0000e+00
       11  1    3    3    0    0 +2.5535081285e-02 +6.9043260467e-02 +3.0129713479e-01 3.1016001797e-01 5.1100000000e-04 0.0000e+00 1.0000e+00
      255  1    3    3    0    0 +2.1715597928e+00 -4.1540307633e+01 +5.3975627406e+02 5.5560070934e+02 1.2500000000e+02 0.0000e+00 0.0000e+00
      -11  1    4    4    0    0 +6.1702667840e-02 +5.1900337564e-02 +8.2158818015e-02 1.1511384259e-01 5.1100000000e-04 0.0000e+00 -1.0000e+00
      255  1    4    4    0    0 -2.2587975419e+00 +4.1419364035e+01 +3.5900730855e+02 3.8240281573e+02 1.2500000000e+02 0.0000e+00 0.0000e+00
<mgrwt>
<rscale>  0 0.26866934E+03</rscale>
<asrwt>0</asrwt>
<pdfrwt beam="1">  1        2 0.14135196E+00 0.26866934E+03</pdfrwt>
<pdfrwt beam="2">  1       -2 0.30216744E-02 0.26866934E+03</pdfrwt>
<totfact> 0.12328950E+04</totfact>
</mgrwt>
</event>
<event>
 8      1 +1.6198320e-01 2.71721900e+02 7.81860800e-03 1.10029800e-01
        2 -1    0    0  501    0 +0.0000000000e+00 +0.0000000000e+00 +3.6059488208e+01 3.6059488299e+01 2.5500000000e-03 0.0000e+00 1.0000e+00
       -2 -1    0    0    0  501 -0.0000000000e+00 -0.0000000000e+00 -5.1188180797e+02 5.1188180798e+02 2.5500000000e-03 0.0000e+00 -1.0000e+00
  1000101  2    1    2    0    0 +2.8559551339e+01 +4.3541196828e+01 -2.5774339476e+02 2.9119259813e+02 1.2509991154e+02 2.1199e+02 0.0000e+00
 -1000101  2    1    2    0    0 -2.8559551339e+01 -4.3541196828e+01 -2.1807892501e+02 2.5674869815e+02 1.2509993076e+02 2.4158e+02 0.0000e+00
       11  1    3    3    0    0 -2.5306714432e-02 -9.6613233376e-03 +1.1001634061e-02 2.9241546429e-02 5.1100000000e-04 0.0000e+00 1.0000e+00
      255  1    3    3    0    0 +2.8584858054e+01 +4.3550858151e+01 -2.5775439639e+02 2.9116335658e+02 1.2500000000e+02 0.0000e+00 0.0000e+00
      -11  1    4    4    0    0 -3.7292681525e-02 +2.9555257413e-03 -3.3347911722e-01 3.3557124724e-01 5.1100000000e-04 0.0000e+00 -1.0000e+00
      255  1    4    4    0    0 -2.8522258658e+01 -4.3544152354e+01 -2.1774544589e+02 2.5641312690e+02 1.2500000000e+02 0.0000e+00 0.0000e+00
<mgrwt>
<rscale>  0 0.27172189E+03</rscale>
<asrwt>0</asrwt>
<pdfrwt beam="1">  1        2 0.55476139E-02 0.27172189E+03</pdfrwt>
<pdfrwt beam="2">  1       -2 0.78751042E-01 0.27172189E+03</pdfrwt>
<totfact> 0.20153708E+03</totfact>
</mgrwt>
</event>
<event>
 8      1 +1.6198320e-01 3.10830800e+02 7.81860800e-03 1.07994800e-01
       -2 -1    0    0    0  501 -0.0000000000e+00 +0.0000000000e+00 +1.5711444641e+01 1.5711444848e+01 2.5500000000e-03 0.0000e+00 -1.0000e+00
        2 -1    0    0  501    0 +0.0000000000e+00 -0.0000000000e+00 -1.5373468286e+03 1.5373468286e+03 2.5500000000e-03 0.0000e+00 1.0000e+00
  1000101  2    1    2    0    0 -7.6600119557e+01 -1.0850800366e+01 -5.1006544464e+02 5.3085032393e+02 1.2509992173e+02 1.2599e+02 0.0000e+00
 -1000101  2    1    2    0    0 +7.6600119557e+01 +1.0850800366e+01 -1.0115699393e+03 1.0222079495e+03 1.2510008690e+02 3.4404e+02 0.0000e+00
       11  1    3    3    0    0 +1.8082991316e-02 -4.5103842846e-02 -4.9761018314e-01 4.9997750620e-01 5.1100000000e-04 0.0000e+00 1.0000e+00
      255  1    3    3    0    0 -7.6618202548e+01 -1.0805696524e+01 -5.0956783446e+02 5.3035034642e+02 1.2500000000e+02 0.0000e+00 0.0000e+00
      -11  1    4    4    0    0 -8.6034581420e-03 +3.6341356497e-02 -1.0901824479e+00 1.0908220499e+00 5.1100000000e-04 0.0000e+00 -1.0000e+00
      255  1    4    4    0    0 +7.6608723015e+01 +1.0814459010e+01 -1.0104797568e+03 1.0211171274e+03 1.2500000000e+02 0.0000e+00 0.0000e+00
<mgrwt>
<rscale>  0 0.31083076E+03</rscale>
<asrwt>0</asrwt>
<pdfrwt beam="1">  1        2 0.23651478E+00 0.31083076E+03</pdfrwt>
<pdfrwt beam="2">  1       -2 0.24171465E-02 0.31083076E+03</pdfrwt>
<totfact> 0.76283872E+03</totfact>
</mgrwt>
</event>
<event>
 8      1 +1.6198320e-01 4.53373200e+02 7.81860800e-03 1.02672100e-01
       -2 -1    0    0    0  501 -0.0000000000e+00 +0.0000000000e+00 +4.7671916728e+02 4.7671916729e+02 2.5500000000e-03 0.0000e+00 -1.0000e+00
        2 -1    0    0  501    0 +0.0000000000e+00 -0.0000000000e+00 -1.0779265485e+02 1.0779265488e+02 2.5500000000e-03 0.0000e+00 1.0000e+00
  1000101  2    1    2    0    0 -2.9346715661e+01 -1.3265819532e+02 +3.5392676929e+02 3.9921621678e+02 1.2509997291e+02 2.5739e+02 0.0000e+00
 -1000101  2    1    2    0    0 +2.9346715661e+01 +1.3265819532e+02 +1.4999743151e+01 1.8529560539e+02 1.2510013020e+02 8.9109e+01 0.0000e+00
       11  1    3    3    0    0 +4.2851834384e-02 +1.9289903610e-02 +9.3730103628e-02 1.0485215086e-01 5.1100000000e-04 0.0000e+00 1.0000e+00
      255  1    3    3    0    0 -2.9389567495e+01 -1.3267748522e+02 +3.5383303918e+02 3.9911136463e+02 1.2500000000e+02 0.0000e+00 0.0000e+00
      -11  1    4    4    0    0 +8.4309799777e-02 +9.7107172318e-02 +9.1551389146e-02 1.5786026489e-01 5.1100000000e-04 0.0000e+00 -1.0000e+00
      255  1    4    4    0    0 +2.9262405861e+01 +1.3256108814e+02 +1.4908191762e+01 1.8513774512e+02 1.2500000000e+02 0.0000e+00 0.0000e+00
<mgrwt>
<rscale>  0 0.45337324E+03</rscale>
<asrwt>0</asrwt>
<pdfrwt beam="1">  1        2 0.16583485E-01 0.45337324E+03</pdfrwt>
<pdfrwt beam="2">  1       -2 0.73341411E-01 0.45337324E+03</pdfrwt>
<totfact> 0.59986628E+02</totfact>
</mgrwt>
</event>
<event>
 8      1 +1.6198320e-01 3.47927900e+02 7.81860800e-03 1.06346900e-01
        1 -1    0    0  501    0 +0.0000000000e+00 +0.0000000000e+00 +5.4799100310e+01 5.4799100542e+01 5.0400000000e-03 0.0000e+00 1.0000e+00
       -1 -1    0    0    0  501 -0.0000000000e+00 -0.0000000000e+00 -5.5226182510e+02 5.5226182512e+02 5.0400000000e-03 0.0000e+00 -1.0000e+00
  1000101  2    1    2    0    0 -1.2011139818e+01 -1.0191078740e+02 -1.3723717374e+02 2.1216534204e+02 1.2510001774e+02 2.5598e+01 0.0000e+00
 -1000101  2    1    2    0    0 +1.2011139818e+01 +1.0191078740e+02 -3.6022555105e+02 3.9489558362e+02 1.2509995311e+02 3.1217e+02 0.0000e+00
       11  1    3    3    0    0 -8.0153608896e-03 +2.2315039726e-02 +2.3571953453e-02 3.3438078870e-02 5.1100000000e-04 0.0000e+00 1.0000e+00
      255  1    3    3    0    0 -1.2003124457e+01 -1.0193310244e+02 -1.3726074570e+02 2.1213190396e+02 1.2500000000e+02 0.0000e+00 0.0000e+00
      -11  1    4    4    0    0 -1.4082565295e-02 -1.4461225875e-02 +6.7856867893e-03 2.1301463940e-02 5.1100000000e-04 0.0000e+00 -1.0000e+00
      255  1    4    4    0    0 +1.2025222383e+01 +1.0192524863e+02 -3.6023233673e+02 3.9487428216e+02 1.2500000000e+02 0.0000e+00 0.0000e+00
<mgrwt>
<rscale>  0 0.34792787E+03</rscale>
<asrwt>0</asrwt>
<pdfrwt beam="1">  1        1 0.84306312E-02 0.34792787E+03</pdfrwt>
<pdfrwt beam="2">  1       -1 0.84963354E-01 0.34792787E+03</pdfrwt>
<totfact> 0.11668157E+03</totfact>
</mgrwt>
</event>
<event>
 8      1 +1.6198320e-01 3.85071200e+02 7.81860800e-03 1.04907500e-01
       -1 -1    0    0    0  501 -0.0000000000e+00 +0.0000000000e+00 +4.8800167605e+01 4.8800167865e+01 5.0400000000e-03 0.0000e+00 -1.0000e+00
        1 -1    0    0  501    0 +0.0000000000e+00 -0.0000000000e+00 -7.5962777158e+02 7.5962777160e+02 5.0400000000e-03 0.0000e+00 1.0000e+00
  1000101  2    1    2    0    0 +4.0771316389e+00 +1.3667783619e+02 -4.6495692575e+02 5.0053210027e+02 1.2509990684e+02 6.8005e+01 0.0000e+00
 -1000101  2    1    2    0    0 -4.0771316389e+00 -1.3667783619e+02 -2.4587067823e+02 3.0789583920e+02 1.2509997391e+02 2.2219e+01 0.0000e+00
       11  1    3    3    0    0 +8.9507506266e-02 +1.6509386838e-01 -5.7554666688e-01 6.0541044419e-01 5.1100000000e-04 0.0000e+00 1.0000e+00
      255  1    3    3    0    0 +3.9876241326e+00 +1.3651274232e+02 -4.6438137908e+02 4.9992668982e+02 1.2500000000e+02 0.0000e+00 0.0000e+00
      -11  1    4    4    0    0 +2.3097325754e-03 -4.4017710590e-02 +1.6385794156e-02 4.7028173277e-02 5.1100000000e-04 0.0000e+00 -1.0000e+00
      255  1    4    4    0    0 -4.0794413714e+00 -1.3663381848e+02 -2.4588706403e+02 3.0784881103e+02 1.2500000000e+02 0.0000e+00 0.0000e+00
<mgrwt>
<rscale>  0 0.38507123E+03</rscale>
<asrwt>0</asrwt>
<pdfrwt beam="1">  1        1 0.11686580E+00 0.38507123E+03</pdfrwt>
<pdfrwt beam="2">  1       -1 0.75077187E-02 0.38507123E+03</pdfrwt>
<totfact> 0.23753043E+03</totfact>
</mgrwt>
</event>
<event>
 8      1 +1.6198320e-01 2.87866800e+02 7.81860800e-03 1.09146800e-01
       -1 -1    0    0    0  501 -0.0000000000e+00 +0.0000000000e+00 +6.3893022067e+01 6.3893022265e+01 5.0400000000e-03 0.0000e+00 -1.0000e+00
        1 -1    0    0  501    0 +0.0000000000e+00 -0.0000000000e+00 -3.2424236764e+02 3.2424236768e+02 5.0400000000e-03 0.0000e+00 1.0000e+00
  1000101  2    1    2    0    0 +4.3119349870e+01 -4.0858930726e+01 -7.7294855691e+01 1.5859770795e+02 1.2509999079e+02 1.7138e+01 0.0000e+00
 -1000101  2    1    2    0    0 -4.3119349870e+01 +4.0858930726e+01 -1.8305448988e+02 2.2953768200e+02 1.2509944299e+02 1.2759e+02 0.0000e+00
       11  1    3    3    0    0 -5.0849795546e-03 -1.0501173948e-01 -1.3230613988e-01 1.6899259811e-01 5.1100000000e-04 0.0000e+00 1.0000e+00
      255  1    3    3    0    0 +4.3124434850e+01 -4.0753918986e+01 -7.7162549552e+01 1.5842871535e+02 1.2500000000e+02 0.0000e+00 0.0000e+00
      -11  1    4    4    0    0 -9.0455410107e-02 +8.7165749043e-02 -3.0549022136e-01 3.3030983257e-01 5.1100000000e-04 0.0000e+00 -1.0000e+00
      255  1    4    4    0    0 -4.3028894460e+01 +4.0771764977e+01 -1.8274899966e+02 2.2920737217e+02 1.2500000000e+02 0.0000e+00 0.0000e+00
<mgrwt>
<rscale>  0 0.28786681E+03</rscale>
<asrwt>0</asrwt>
<pdfrwt beam="1">  1        1 0.49883440E-01 0.28786681E+03</pdfrwt>
<pdfrwt beam="2">  1       -1 0.98296959E-02 0.28786681E+03</pdfrwt>
<totfact> 0.49482574E+03</totfact>
</mgrwt>
</event>
<event>
 8      1 +1.6198320e-01 3.28043600e+02 7.81860800e-03 1.07200600e-01
       -2 -1    0    0    0  501 -0.0000000000e+00 +0.0000000000e+00 +2.3228620474e+01 2.3228620614e+01 2.5500000000e-03 0.0000e+00 -1.0000e+00
        2 -1    0    0  501    0 +0.0000000000e+00 -0.0000000000e+00 -1.1581898676e+03 1.1581898676e+03 2.5500000000e-03 0.0000e+00 1.0000e+00
  1000101  2    1    2    0    0 -6.3692050856e+01 +8.3037445342e+01 -5.0497063073e+02 5.3065733662e+02 1.2509986544e+02 4.9107e+01 0.0000e+00
 -1000101  2    1    2    0    0 +6.3692050856e+01 -8.3037445342e+01 -6.2999061639e+02 6.5076115159e+02 1.2509998007e+02 2.4173e+01 0.0000e+00
       11  1    3    3    0    0 -8.2976992188e-02 +1.7817082368e-01 -7.3287882146e-01 7.5877641747e-01 5.1100000000e-04 0.0000e+00 1.0000e+00
      255  1    3    3    0    0 -6.3609073863e+01 +8.2859274519e+01 -5.0423775191e+02 5.2989856020e+02 1.2500000000e+02 0.0000e+00 0.0000e+00
      -11  1    4    4    0    0 -2.7324721358e-02 -2.8030279375e-03 -1.4764959119e-02 3.1189140776e-02 5.1100000000e-04 0.0000e+00 -1.0000e+00
      255  1    4    4    0    0 +6.3719375577e+01 -8.3034642315e+01 -6.2997585143e+02 6.5072996245e+02 1.2500000000e+02 0.0000e+00 0.0000e+00
<mgrwt>
<rscale>  0 0.32804361E+03</rscale>
<asrwt>0</asrwt>
<pdfrwt beam="1">  1        2 0.17818301E+00 0.32804361E+03</pdfrwt>
<pdfrwt beam="2">  1       -2 0.35736348E-02 0.32804361E+03</pdfrwt>
<totfact> 0.69027813E+03</totfact>
</mgrwt>
</event>
<event>
 8      1 +1.6198320e-01 2.87518500e+02 7.81860800e-03 1.09165200e-01
        2 -1    0    0  501    0 +0.0000000000e+00 +0.0000000000e+00 +5.7876851256e+02 5.7876851256e+02 2.5500000000e-03 0.0000e+00 1.0000e+00
       -2 -1    0    0    0  501 -0.0000000000e+00 -0.0000000000e+00 -3.5708099277e+01 3.5708099369e+01 2.5500000000e-03 0.0000e+00 -1.0000e+00
  1000101  2    1    2    0    0 +6.1276072899e+01 +2.7219852537e+01 +3.2031341212e+02 3.5035180771e+02 1.2510007874e+02 1.2908e+02 0.0000e+00
 -1000101  2    1    2    0    0 -6.1276072899e+01 -2.7219852537e+01 +2.2274700116e+02 2.6412480422e+02 1.2509999279e+02 4.2158e+02 0.0000e+00
       11  1    3    3    0    0 +1.5463933956e-01 +2.2753202024e-02 +4.3534041386e-01 4.6255007362e-01 5.1100000000e-04 0.0000e+00 1.0000e+00
      255  1    3    3    0    0 +6.1121433559e+01 +2.7197099335e+01 +3.1987807170e+02 3.4988925764e+02 1.2500000000e+02 0.0000e+00 0.0000e+00
      -11  1    4    4    0    0 +6.8296678001e-03 +6.2994706556e-02 +1.8237142625e-01 1.9306624679e-01 5.1100000000e-04 0.0000e+00 -1.0000e+00
      255  1    4    4    0    0 -6.1282902567e+01 -2.7282847244e+01 +2.2256462974e+02 2.6393173797e+02 1.2500000000e+02 0.0000e+00 0.0000e+00
<mgrwt>
<rscale>  0 0.28751851E+03</rscale>
<asrwt>0</asrwt>
<pdfrwt beam="1">  1        2 0.89041308E-01 0.28751851E+03</pdfrwt>
<pdfrwt beam="2">  1       -2 0.54935539E-02 0.28751851E+03</pdfrwt>
<totfact> 0.88969143E+03</totfact>
</mgrwt>
</event>
<event>
 8      1 +1.6198320e-01 3.18052900e+02 7.81860800e-03 1.07654900e-01
       -2 -1    0    0    0  501 -0.0000000000e+00 +0.0000000000e+00 +4.3602942455e+02 4.3602942456e+02 2.5500000000e-03 0.0000e+00 -1.0000e+00
        2 -1    0    0  501    0 +0.0000000000e+00 -0.0000000000e+00 -5.7999335845e+01 5.7999335901e+01 2.5500000000e-03 0.0000e+00 1.0000e+00
  1000101  2    1    2    0    0 +5.6824710615e+01 -7.2963082528e+01 +2.4022034296e+02 2.8619662412e+02 1.2510010127e+02 3.6700e+01 0.0000e+00
 -1000101  2    1    2    0    0 -5.6824710615e+01 +7.2963082528e+01 +1.3780974575e+02 2.0783213634e+02 1.2510000689e+02 3.0179e+00 0.0000e+00
       11  1    3    3    0    0 +5.9612839558e-02 -4.2862853514e-02 +8.8862615246e-03 7.3960405740e-02 5.1100000000e-04 0.0000e+00 1.0000e+00
      255  1    3    3    0    0 +5.6765097776e+01 -7.2920219675e+01 +2.4021145670e+02 2.8612266372e+02 1.2500000000e+02 0.0000e+00 0.0000e+00
      -11  1    4    4    0    0 +1.5752948330e-04 +1.6324527661e-02 +1.9343724768e-01 1.9412559061e-01 5.1100000000e-04 0.0000e+00 -1.0000e+00
      255  1    4    4    0    0 -5.6824868145e+01 +7.2946758001e+01 +1.3761630850e+02 2.0763801075e+02 1.2500000000e+02 0.0000e+00 0.0000e+00
<mgrwt>
<rscale>  0 0.31805293E+03</rscale>
<asrwt>0</asrwt>
<pdfrwt beam="1">  1        2 0.89229745E-02 0.31805293E+03</pdfrwt>
<pdfrwt beam="2">  1       -2 0.67081452E-01 0.31805293E+03</pdfrwt>
<totfact> 0.15508880E+03</totfact>
</mgrwt>
</event>
<event>
 8      1 +1.6198320e-01 5.94532100e+02 7.81860800e-03 9.91681600e-02
        1 -1    0    0  501    0 +0.0000000000e+00 +0.0000000000e+00 +1.3335887231e+03 1.3335887232e+03 5.0400000000e-03 0.0000e+00 1.0000e+00
       -1 -1    0    0    0  501 -0.0000000000e+00 -0.0000000000e+00 -6.6262638598e+01 6.6262638790e+01 5.0400000000e-03 0.0000e+00 -1.0000e+00
  1000101  2    1    2    0    0 +1.4307382191e+02 +2.1929549588e+02 +4.8186435137e+02 5.6249792386e+02 1.2510007276e+02 4.0307e+01 0.0000e+00
 -1000101  2    1    2    0    0 -1.4307382191e+02 -2.1929549588e+02 +7.8546173318e+02 8.3735343808e+02 1.2510001179e+02 3.9929e+02 0.0000e+00
       11  1    3    3    0    0 +2.8008225882e-02 +7.9101616791e-02 +3.5102383514e-01 3.6091483823e-01 5.1100000000e-04 0.0000e+00 1.0000e+00
      255  1    3    3    0    0 +1.4304581368e+02 +2.1921639426e+02 +4.8151332753e+02 5.6213700903e+02 1.2500000000e+02 0.0000e+00 0.0000e+00
      -11  1    4    4    0    0 +2.9517064767e-02 -9.5304494771e-02 +2.3581952930e-01 2.5605725015e-01 5.1100000000e-04 0.0000e+00 -1.0000e+00
      255  1    4    4    0    0 -1.4310333898e+02 -2.1920019138e+02 +7.8522591365e+02 8.3709738083e+02 1.2500000000e+02 0.0000e+00 0.0000e+00
<mgrwt>
<rscale>  0 0.59453211E+03</rscale>
<asrwt>0</asrwt>
<pdfrwt beam="1">  1        1 0.20516749E+00 0.59453211E+03</pdfrwt>
<pdfrwt beam="2">  1       -1 0.10194253E-01 0.59453211E+03</pdfrwt>
<totfact> 0.53560757E+02</totfact>
</mgrwt>
</event>
<event>
 8      1 +1.6198320e-01 4.58885300e+02 7.81860800e-03 1.02510500e-01
        2 -1    0    0  501    0 +0.0000000000e+00 +0.0000000000e+00 +2.3369064703e+02 2.3369064704e+02 2.5500000000e-03 0.0000e+00 1.0000e+00
       -2 -1    0    0    0  501 -0.0000000000e+00 -0.0000000000e+00 -2.2527183810e+02 2.2527183811e+02 2.5500000000e-03 0.0000e+00 -1.0000e+00
  1000101  2    1    2    0    0 -1.1290822077e+01 +1.4562563876e+02 -1.2094996001e+02 2.2718538010e+02 1.2509993915e+02 8.1684e+01 0.0000e+00
 -1000101  2    1    2    0    0 +1.1290822077e+01 -1.4562563876e+02 +1.2936876894e+02 2.3177710505e+02 1.2510011480e+02 7.6340e+01 0.0000e+00
       11  1    3    3    0    0 -3.1784434999e-02 +6.5475897933e-02 -1.8058186599e-01 1.9469826646e-01 5.1100000000e-04 0.0000e+00 1.0000e+00
      255  1    3    3    0    0 -1.1259037642e+01 +1.4556016286e+02 -1.2076937814e+02 2.2699068183e+02 1.2500000000e+02 0.0000e+00 0.0000e+00
      -11  1    4    4    0    0 +7.4012583881e-02 -1.0577049143e-01 +1.9155067052e-01 2.3099173130e-01 5.1100000000e-04 0.0000e+00 -1.0000e+00
      255  1    4    4    0    0 +1.1216809493e+01 -1.4551986827e+02 +1.2917721827e+02 2.3154611332e+02 1.2500000000e+02 0.0000e+00 0.0000e+00
<mgrwt>
<rscale>  0 0.45888526E+03</rscale>
<asrwt>0</asrwt>
<pdfrwt beam="1">  1        2 0.35952407E-01 0.45888526E+03</pdfrwt>
<pdfrwt beam="2">  1       -2 0.34657206E-01 0.45888526E+03</pdfrwt>
<totfact> 0.11318107E+03</totfact>
</mgrwt>
</event>
<event>
 8      1 +1.6198320e-01 2.77106100e+02 7.81860800e-03 1.09728000e-01
        2 -1    0    0  501    0 +0.0000000000e+00 +0.0000000000e+00 +2.0824914674e+03 2.0824914674e+03 2.5500000000e-03 0.0000e+00 1.0000e+00
       -2 -1    0    0    0  501 -0.0000000000e+00 -0.0000000000e+00 -9.2182580128e+00 9.2182583655e+00 2.5500000000e-03 0.0000e+00 -1.0000e+00
  1000101  2    1    2    0    0 -2.8874406993e+01 -1.0464329491e+01 +6.5146989412e+02 6.6408302281e+02 1.2509997871e+02 4.5413e+00 0.0000e+00
 -1000101  2    1    2    0    0 +2.8874406993e+01 +1.0464329491e+01 +1.4218033152e+03 1.4276267029e+03 1.2510036815e+02 6.8542e+00 0.0000e+00
       11  1    3    3    0    0 -1.0673019634e-01 +4.2708666171e-02 +7.1987432889e-01 7.2899566219e-01 5.1100000000e-04 0.0000e+00 1.0000e+00
      255  1    3    3    0    0 -2.8767676797e+01 -1.0507038157e+01 +6.5075001979e+02 6.6335402715e+02 1.2500000000e+02 0.0000e+00 0.0000e+00
      -11  1    4    4    0    0 +1.1211138044e-01 -3.9028600471e-02 +1.1765188489e+00 1.1824927299e+00 5.1100000000e-04 0.0000e+00 -1.0000e+00
      255  1    4    4    0    0 +2.8762295612e+01 +1.0503358091e+01 +1.4206267964e+03 1.4264442102e+03 1.2500000000e+02 0.0000e+00 0.0000e+00
<mgrwt>
<rscale>  0 0.27710607E+03</rscale>
<asrwt>0</asrwt>
<pdfrwt beam="1">  1        2 0.32038393E+00 0.27710607E+03</pdfrwt>
<pdfrwt beam="2">  1       -2 0.14181908E-02 0.27710607E+03</pdfrwt>
<totfact> 0.86087945E+03</totfact>
</mgrwt>
</event>
<event>
 8      1 +1.6198320e-01 9.09392500e+02 7.81860800e-03 9.41391600e-02
       -2 -1    0    0    0  501 -0.0000000000e+00 +0.0000000000e+00 +1.6563010054e+02 1.6563010056e+02 2.5500000000e-03 0.0000e+00 -1.0000e+00
        2 -1    0    0  501    0 +0.0000000000e+00 -0.0000000000e+00 -1.2482554149e+03 1.2482554149e+03 2.5500000000e-03 0.0000e+00 1.0000e+00
  1000101  2    1    2    0    0 -2.5915091138e+02 -2.8219765953e+02 -2.1405928116e+02 4.5636179830e+02 1.2509996476e+02 4.1756e+01 0.0000e+00
 -1000101  2    1    2    0    0 +2.5915091138e+02 +2.8219765953e+02 -8.6856603321e+02 9.5752371717e+02 1.2509996398e+02 2.4233e+02 0.0000e+00
       11  1    3    3    0    0 -2.0850784344e-01 -1.1739814129e-01 -6.0715062642e-02 2.4686924537e-01 5.1100000000e-04 0.0000e+00 1.0000e+00
      255  1    3    3    0    0 -2.5894240353e+02 -2.8208026139e+02 -2.1399856609e+02 4.5611492905e+02 1.2500000000e+02 0.0000e+00 0.0000e+00
      -11  1    4    4    0    0 +8.1526424778e-02 +4.4114054830e-02 -4.0532314105e-01 4.1578806809e-01 5.1100000000e-04 0.0000e+00 -1.0000e+00
      255  1    4    4    0    0 +2.5906938495e+02 +2.8215354548e+02 -8.6816071007e+02 9.5710792910e+02 1.2500000000e+02 0.0000e+00 0.0000e+00
<mgrwt>
<rscale>  0 0.90939248E+03</rscale>
<asrwt>0</asrwt>
<pdfrwt beam="1">  1        2 0.19203929E+00 0.90939248E+03</pdfrwt>
<pdfrwt beam="2">  1       -2 0.25481555E-01 0.90939248E+03</pdfrwt>
<totfact> 0.24588213E+02</totfact>
</mgrwt>
</event>
<event>
 8      1 +1.6198320e-01 5.06959200e+02 7.81860800e-03 1.01197800e-01
        2 -1    0    0  501    0 +0.0000000000e+00 +0.0000000000e+00 +1.5606021814e+03 1.5606021814e+03 2.5500000000e-03 0.0000e+00 1.0000e+00
       -2 -1    0    0    0  501 -0.0000000000e+00 -0.0000000000e+00 -4.1171221736e+01 4.1171221815e+01 2.5500000000e-03 0.0000e+00 -1.0000e+00
  1000101  2    1    2    0    0 +1.9865250505e+02 -9.3716774578e+01 +8.1934597241e+02 8.5745176131e+02 1.2510015537e+02 1.9784e+02 0.0000e+00
 -1000101  2    1    2    0    0 -1.9865250505e+02 +9.3716774578e+01 +7.0008498729e+02 7.4432164194e+02 1.2510022236e+02 2.9541e+02 0.0000e+00
       11  1    3    3    0    0 +9.5390432071e-02 +1.8994813630e-02 +6.0421465264e-01 6.1199325573e-01 5.1100000000e-04 0.0000e+00 1.0000e+00
      255  1    3    3    0    0 +1.9855711461e+02 -9.3735769391e+01 +8.1874175775e+02 8.5683976805e+02 1.2500000000e+02 0.0000e+00 0.0000e+00
      -11  1    4    4    0    0 -9.6703224348e-02 +1.5526407292e-01 +4.8049499087e-01 5.1413436309e-01 5.1100000000e-04 0.0000e+00 -1.0000e+00
      255  1    4    4    0    0 -1.9855580182e+02 +9.3561510505e+01 +6.9960449230e+02 7.4380750758e+02 1.2500000000e+02 0.0000e+00 0.0000e+00
<mgrwt>
<rscale>  0 0.50695916E+03</rscale>
<asrwt>0</asrwt>
<pdfrwt beam="1">  1        2 0.24009265E+00 0.50695916E+03</pdfrwt>
<pdfrwt beam="2">  1       -2 0.63340339E-02 0.50695916E+03</pdfrwt>
<totfact> 0.17087270E+03</totfact>
</mgrwt>
</event>
<event>
 8      1 +1.6198320e-01 3.74181900e+02 7.81860800e-03 1.05310500e-01
       -2 -1    0    0    0  501 -0.0000000000e+00 +0.0000000000e+00 +3.4501953745e+01 3.4501953839e+01 2.5500000000e-03 0.0000e+00 -1.0000e+00
        2 -1    0    0  501    0 +0.0000000000e+00 -0.0000000000e+00 -1.0145230637e+03 1.0145230637e+03 2.5500000000e-03 0.0000e+00 1.0000e+00
  1000101  2    1    2    0    0 -5.2847017633e+00 -8.1014357432e+01 -1.7330292356e+02 2.2863767804e+02 1.2510008122e+02 5.9515e+01 0.0000e+00
 -1000101  2    1    2    0    0 +5.2847017633e+00 +8.1014357432e+01 -8.0671818636e+02 8.2038733947e+02 1.2509956185e+02 9.7932e+01 0.0000e+00
       11  1    3    3    0    0 -4.4004506830e-02 -1.4385320920e-01 -2.8880513837e-01 3.2563601074e-01 5.1100000000e-04 0.0000e+00 1.0000e+00
      255  1    3    3    0    0 -5.2406972565e+00 -8.0870504223e+01 -1.7301411842e+02 2.2831204203e+02 1.2500000000e+02 0.0000e+00 0.0000e+00
      -11  1    4    4    0    0 +7.4215856235e-02 +7.2177475275e-04 -2.2350651628e-01 2.3550783048e-01 5.1100000000e-04 0.0000e+00 -1.0000e+00
      255  1    4    4    0    0 +5.2104859071e+00 +8.1013635657e+01 -8.0649467984e+02 8.2015183164e+02 1.2500000000e+02 0.0000e+00 0.0000e+00
<mgrwt>
<rscale>  0 0.37418192E+03</rscale>
<asrwt>0</asrwt>
<pdfrwt beam="1">  1        2 0.15608045E+00 0.37418192E+03</pdfrwt>
<pdfrwt beam="2">  1       -2 0.53079937E-02 0.37418192E+03</pdfrwt>
<totfact> 0.46162342E+03</totfact>
</mgrwt>
</event>
<event>
 8      1 +1.6198320e-01 2.56163000e+02 7.81860800e-03 1.10947100e-01
        2 -1    0    0  501    0 +0.0000000000e+00 +0.0000000000e+00 +1.0361663626e+03 1.0361663627e+03 2.5500000000e-03 0.0000e+00 1.0000e+00
       -2 -1    0    0    0  501 -0.0000000000e+00 -0.0000000000e+00 -1.5832272009e+01 1.5832272214e+01 2.5500000000e-03 0.0000e+00 -1.0000e+00
  1000101  2    1    2    0    0 +1.7756980521e+01 -1.0952775226e+01 +4.3674563049e+02 4.5478783017e+02 1.2509976450e+02 4.4194e+00 0.0000e+00
 -1000101  2    1    2    0    0 -1.7756980521e+01 +1.0952775226e+01 +5.8358846015e+02 5.9721080470e+02 1.2509988322e+02 1.8316e+02 0.0000e+00
       11  1    3    3    0    0 +6.1583883431e-02 -1.2840250076e-02 +6.8746314915e-01 6.9033563524e-01 5.1100000000e-04 0.0000e+00 1.0000e+00
      255  1    3    3    0    0 +1.7695396637e+01 -1.0939934976e+01 +4.3605816734e+02 4.5409749453e+02 1.2500000000e+02 0.0000e+00 0.0000e+00
      -11  1    4    4    0    0 -4.7230110154e-02 -4.1767900945e-02 +9.2515919231e-02 1.1195846233e-01 5.1100000000e-04 0.0000e+00 -1.0000e+00
      255  1    4    4    0    0 -1.7709750411e+01 +1.0994543127e+01 +5.8349594423e+02 5.9709884623e+02 1.2500000000e+02 0.0000e+00 0.0000e+00
<mgrwt>
<rscale>  0 0.25616298E+03</rscale>
<asrwt>0</asrwt>
<pdfrwt beam="1">  1        2 0.15941029E+00 0.25616298E+03</pdfrwt>
<pdfrwt beam="2">  1       -2 0.24357330E-02 0.25616298E+03</pdfrwt>
<totfact> 0.14331476E+04</totfact>
</mgrwt>
</event>
<event>
 8      1 +1.6198320e-01 4.41073500e+02 7.81860800e-03 1.03041800e-01
        2 -1    0    0  501    0 +0.0000000000e+00 +0.0000000000e+00 +2.7560675560e+02 2.7560675561e+02 2.5500000000e-03 0.0000e+00 1.0000e+00
       -2 -1    0    0    0  501 -0.0000000000e+00 -0.0000000000e+00 -1.7647050465e+02 1.7647050467e+02 2.5500000000e-03 0.0000e+00 -1.0000e+00
  1000101  2    1    2    0    0 -1.7787230252e+02 +3.2711572441e+01 +6.6652722408e+01 2.2978512654e+02 1.2510002399e+02 4.1601e+01 0.0000e+00
 -1000101  2    1    2    0    0 +1.7787230252e+02 -3.2711572441e+01 +3.2483528542e+01 2.2229213374e+02 1.2510000048e+02 4.6663e+01 0.0000e+00
       11  1    3    3    0    0 -2.7273675105e-01 +4.3745229075e-02 +1.5500690637e-01 3.1674340180e-01 5.1100000000e-04 0.0000e+00 1.0000e+00
      255  1    3    3    0    0 -1.7759956577e+02 +3.2667827212e+01 +6.6497715501e+01 2.2946838314e+02 1.2500000000e+02 0.0000e+00 0.0000e+00
      -11  1    4    4    0    0 +3.7469251202e-02 +5.6353415623e-02 +5.2424253378e-02 8.5604998112e-02 5.1100000000e-04 0.0000e+00 -1.0000e+00
      255  1    4    4    0    0 +1.7783483327e+02 -3.2767925857e+01 +3.2431104289e+01 2.2220652874e+02 1.2500000000e+02 0.0000e+00 0.0000e+00
<mgrwt>
<rscale>  0 0.44107352E+03</rscale>
<asrwt>0</asrwt>
<pdfrwt beam="1">  1        2 0.42401039E-01 0.44107352E+03</pdfrwt>
<pdfrwt beam="2">  1       -2 0.27149308E-01 0.44107352E+03</pdfrwt>
<totfact> 0.14809245E+03</totfact>
</mgrwt>
</event>
<event>
 8      1 +1.6198320e-01 3.65746500e+02 7.81860800e-03 1.05633100e-01
        2 -1    0    0  501    0 +0.0000000000e+00 +0.0000000000e+00 +2.3323557238e+02 2.3323557240e+02 2.5500000000e-03 0.0000e+00 1.0000e+00
       -2 -1    0    0    0  501 -0.0000000000e+00 -0.0000000000e+00 -1.4338559357e+02 1.4338559359e+02 2.5500000000e-03 0.0000e+00 -1.0000e+00
  1000101  2    1    2    0    0 -3.0510476392e+01 +1.2050054143e+02 -4.9022012389e+00 1.7642330308e+02 1.2509948297e+02 8.8287e+01 0.0000e+00
 -1000101  2    1    2    0    0 +3.0510476392e+01 -1.2050054143e+02 +9.4752180051e+01 2.0019786291e+02 1.2509971636e+02 1.3281e+01 0.0000e+00
       11  1    3    3    0    0 -3.3558632201e-02 +1.3467833078e-01 +9.0666329028e-02 1.6578624466e-01 5.1100000000e-04 0.0000e+00 1.0000e+00
      255  1    3    3    0    0 -3.0476917760e+01 +1.2036586310e+02 -4.9928675679e+00 1.7625751684e+02 1.2500000000e+02 0.0000e+00 0.0000e+00
      -11  1    4    4    0    0 +1.0816844191e-01 -1.2574399605e-01 +2.9673432740e-02 1.6850144836e-01 5.1100000000e-04 0.0000e+00 -1.0000e+00
      255  1    4    4    0    0 +3.0402307950e+01 -1.2037479743e+02 +9.4722506618e+01 2.0002936146e+02 1.2500000000e+02 0.0000e+00 0.0000e+00
<mgrwt>
<rscale>  0 0.36574648E+03</rscale>
<asrwt>0</asrwt>
<pdfrwt beam="1">  1        2 0.35882395E-01 0.36574648E+03</pdfrwt>
<pdfrwt beam="2">  1       -2 0.22059322E-01 0.36574648E+03</pdfrwt>
<totfact> 0.25642140E+03</totfact>
</mgrwt>
</event>
<event>
 8      1 +1.6198320e-01 3.01834000e+02 7.81860800e-03 1.08432700e-01
       -2 -1    0    0    0  501 -0.0000000000e+00 +0.0000000000e+00 +3.0342038149e+01 3.0342038256e+01 2.5500000000e-03 0.0000e+00 -1.0000e+00
        2 -1    0    0  501    0 +0.0000000000e+00 -0.0000000000e+00 -7.5063987463e+02 7.5063987463e+02 2.5500000000e-03 0.0000e+00 1.0000e+00
  1000101  2    1    2    0    0 +2.8561229603e+01 -7.9153817163e+01 -3.7748590535e+02 4.0648084401e+02 1.2509994885e+02 1.6453e+01 0.0000e+00
 -1000101  2    1    2    0    0 -2.8561229603e+01 +7.9153817163e+01 -3.4281193113e+02 3.7450106888e+02 1.2509979959e+02 7.1941e+01 0.0000e+00
       11  1    3    3    0    0 -4.0238543767e-02 -3.4566851655e-02 -4.4124290631e-01 4.4442048910e-01 5.1100000000e-04 0.0000e+00 1.0000e+00
      255  1    3    3    0    0 +2.8601468146e+01 -7.9119250311e+01 -3.7704466244e+02 4.0603642352e+02 1.2500000000e+02 0.0000e+00 0.0000e+00
      -11  1    4    4    0    0 -1.7871715509e-02 +5.3225621381e-02 -1.2706427557e-02 5.7568041565e-02 5.1100000000e-04 0.0000e+00 -1.0000e+00
      255  1    4    4    0    0 -2.8543357887e+01 +7.9100591542e+01 -3.4279922470e+02 3.7444350084e+02 1.2500000000e+02 0.0000e+00 0.0000e+00
<mgrwt>
<rscale>  0 0.30183402E+03</rscale>
<asrwt>0</asrwt>
<pdfrwt beam="1">  1        2 0.11548304E+00 0.30183402E+03</pdfrwt>
<pdfrwt beam="2">  1       -2 0.46680064E-02 0.30183402E+03</pdfrwt>
<totfact> 0.83655273E+03</totfact>
</mgrwt>
</event>
<event>
 8      1 +1.6198320e-01 2.86549000e+02 7.81860800e-03 1.09216500e-01
       -2 -1    0    0    0  501 -0.0000000000e+00 +0.0000000000e+00 +1.5893232663e+01 1.5893232867e+01 2.5500000000e-03 0.0000e+00 1.0000e+00
        2 -1    0    0  501    0 +0.0000000000e+00 -0.0000000000e+00 -1.2915924238e+03 1.2915924238e+03 2.5500000000e-03 0.0000e+00 -1.0000e+00
  1000101  2    1    2    0    0 +4.8129991937e+01 +4.0611853439e+01 -5.0007238227e+02 5.1931514519e+02 1.2510001499e+02 2.1582e+02 0.0000e+00
 -1000101  2    1    2    0    0 -4.8129991937e+01 -4.0611853439e+01 -7.7562680888e+02 7.8817051149e+02 1.2509991915e+02 1.8570e+02 0.0000e+00
       11  1    3    3    0    0 -3.5353494520e-02 -5.0455652368e-02 -1.8385484381e-01 1.9390334485e-01 5.1100000000e-04 0.0000e+00 1.0000e+00
      255  1    3    3    0    0 +4.8165345431e+01 +4.0662309091e+01 -4.9988852743e+02 5.1912124184e+02 1.2500000000e+02 0.0000e+00 0.0000e+00
      -11  1    4    4    0    0 +4.4642305230e-02 -7.6446028284e-02 -7.4138759667e-01 7.4665437806e-01 5.1100000000e-04 0.0000e+00 -1.0000e+00
      255  1    4    4    0    0 -4.8174634242e+01 -4.0535407410e+01 -7.7488542128e+02 7.8742385712e+02 1.2500000000e+02 0.0000e+00 0.0000e+00
<mgrwt>
<rscale>  0 0.28654898E+03</rscale>
<asrwt>0</asrwt>
<pdfrwt beam="1">  1        2 0.19870644E+00 0.28654898E+03</pdfrwt>
<pdfrwt beam="2">  1       -2 0.24451138E-02 0.28654898E+03</pdfrwt>
<totfact> 0.10191163E+04</totfact>
</mgrwt>
</event>
<event>
 8      1 +1.6198320e-01 3.79448300e+02 7.81860800e-03 1.05113800e-01
       -2 -1    0    0    0  501 -0.0000000000e+00 +0.0000000000e+00 +2.1639146869e+01 2.1639147019e+01 2.5500000000e-03 0.0000e+00 -1.0000e+00
        2 -1    0    0  501    0 +0.0000000000e+00 -0.0000000000e+00 -1.6634320737e+03 1.6634320737e+03 2.5500000000e-03 0.0000e+00 1.0000e+00
  1000101  2    1    2    0    0 -1.1164143344e+01 +8.6903024558e+01 -1.3207325277e+03 1.3295341981e+03 1.2509996198e+02 1.7345e+02 0.0000e+00
 -1000101  2    1    2    0    0 +1.1164143344e+01 -8.6903024558e+01 -3.2106039917e+02 3.5553702264e+02 1.2510004306e+02 4.0529e+01 0.0000e+00
       11  1    3    3    0    0 -2.6018319405e-02 +9.9772765522e-02 -2.0461199512e+00 2.0487163478e+00 5.1100000000e-04 0.0000e+00 1.0000e+00
      255  1    3    3    0    0 -1.1138125025e+01 +8.6803251793e+01 -1.3186864077e+03 1.3274854817e+03 1.2500000000e+02 0.0000e+00 0.0000e+00
      -11  1    4    4    0    0 -4.7380810518e-02 -1.6484146610e-01 -3.2532326314e-01 3.6776777566e-01 5.1100000000e-04 0.0000e+00 -1.0000e+00
      255  1    4    4    0    0 +1.1211524155e+01 -8.6738183092e+01 -3.2073507591e+02 3.5516925486e+02 1.2500000000e+02 0.0000e+00 0.0000e+00
<mgrwt>
<rscale>  0 0.37944829E+03</rscale>
<asrwt>0</asrwt>
<pdfrwt beam="1">  1        2 0.25591253E+00 0.37944829E+03</pdfrwt>
<pdfrwt beam="2">  1       -2 0.33291008E-02 0.37944829E+03</pdfrwt>
<totfact> 0.40489544E+03</totfact>
</mgrwt>
</event>
<event>
 8      1 +1.6198320e-01 3.00311200e+02 7.81860800e-03 1.08508500e-01
        1 -1    0    0  501    0 +0.0000000000e+00 +0.0000000000e+00 +8.8546497783e+02 8.8546497784e+02 5.0400000000e-03 0.0000e+00 1.0000e+00
       -1 -1    0    0    0  501 -0.0000000000e+00 -0.0000000000e+00 -2.5463129752e+01 2.5463130250e+01 5.0400000000e-03 0.0000e+00 -1.0000e+00
  1000101  2    1    2    0    0 +6.2873126793e+01 +5.3365890056e+01 +4.5968298726e+02 4.8348671735e+02 1.2509999514e+02 3.8439e+00 0.0000e+00
 -1000101  2    1    2    0    0 -6.2873126793e+01 -5.3365890056e+01 +4.0031886082e+02 4.2744139074e+02 1.2509997562e+02 1.1556e+02 0.0000e+00
       11  1    3    3    0    0 -5.8583467981e-02 +3.7692281897e-02 +2.8417343077e-01 2.9258764621e-01 5.1100000000e-04 0.0000e+00 1.0000e+00
      255  1    3    3    0    0 +6.2931710261e+01 +5.3328197774e+01 +4.5939881383e+02 4.8319412970e+02 1.2500000000e+02 0.0000e+00 0.0000e+00
      -11  1    4    4    0    0 -1.2662912563e-01 -2.5732014037e-02 +1.9710994907e-01 2.3568976463e-01 5.1100000000e-04 0.0000e+00 -1.0000e+00
      255  1    4    4    0    0 -6.2746497667e+01 -5.3340158042e+01 +4.0012175087e+02 4.2720570098e+02 1.2500000000e+02 0.0000e+00 0.0000e+00
<mgrwt>
<rscale>  0 0.30031124E+03</rscale>
<asrwt>0</asrwt>
<pdfrwt beam="1">  1        1 0.13622537E+00 0.30031124E+03</pdfrwt>
<pdfrwt beam="2">  1       -1 0.39174051E-02 0.30031124E+03</pdfrwt>
<totfact> 0.49812395E+03</totfact>
</mgrwt>
</event>
<event>
 8      1 +1.6198320e-01 2.68499600e+02 7.81860800e-03 1.10214100e-01
       -2 -1    0    0    0  501 -0.0000000000e+00 +0.0000000000e+00 +1.9091024522e+01 1.9091024692e+01 2.5500000000e-03 0.0000e+00 -1.0000e+00
        2 -1    0    0  501    0 +0.0000000000e+00 -0.0000000000e+00 -9.4405693950e+02 9.4405693950e+02 2.5500000000e-03 0.0000e+00 1.0000e+00
  1000101  2    1    2    0    0 +2.5962747318e+01 -1.1288819936e+01 -6.0468496283e+02 6.1813865733e+02 1.2509993488e+02 1.0789e+02 0.0000e+00
 -1000101  2    1    2    0    0 -2.5962747318e+01 +1.1288819936e+01 -3.2028095214e+02 3.4500930686e+02 1.2510008718e+02 0.0000e+00 0.0000e+00
       11  1    3    3    0    0 +1.8855584520e-02 -4.7439933561e-02 -9.4152543772e-01 9.4290852756e-01 5.1100000000e-04 0.0000e+00 1.0000e+00
      255  1    3    3    0    0 +2.5943891733e+01 -1.1241380002e+01 -6.0374343739e+02 6.1719574880e+02 1.2500000000e+02 0.0000e+00 0.0000e+00
      -11  1    4    4    0    0 +1.6664827658e-02 -7.5348040609e-02 -1.0731674228e-01 1.3218240427e-01 5.1100000000e-04 0.0000e+00 -1.0000e+00
      255  1    4    4    0    0 -2.5979412146e+01 +1.1364167976e+01 -3.2017363540e+02 3.4487712446e+02 1.2500000000e+02 0.0000e+00 0.0000e+00
<mgrwt>
<rscale>  0 0.26849964E+03</rscale>
<asrwt>0</asrwt>
<pdfrwt beam="1">  1        2 0.14523949E+00 0.26849964E+03</pdfrwt>
<pdfrwt beam="2">  1       -2 0.29370814E-02 0.26849964E+03</pdfrwt>
<totfact> 0.12394756E+04</totfact>
</mgrwt>
</event>
<event>
 8      1 +1.6198320e-01 4.77587000e+02 7.81860800e-03 1.01980000e-01
        3 -1    0    0  501    0 +0.0000000000e+00 +0.0000000000e+00 +9.5969149878e+01 9.5969203025e+01 1.0100000000e-01 0.0000e+00 -1.0000e+00
       -3 -1    0    0    0  501 -0.0000000000e+00 -0.0000000000e+00 -5.9417331136e+02 5.9417331995e+02 1.0100000000e-01 0.0000e+00 1.0000e+00
  1000101  2    1    2    0    0 +7.5646927176e+01 -1.0405991695e+02 -2.1435684209e+01 1.8072217114e+02 1.2510032245e+02 8.8733e+01 0.0000e+00
 -1000101  2    1    2    0    0 -7.5646927176e+01 +1.0405991695e+02 -4.7676847728e+02 5.0942035183e+02 1.2509992018e+02 1.2911e+01 0.0000e+00
       11  1    3    3    0    0 +1.5174893700e-01 -1.1913430994e-01 -8.7739724385e-02 2.1194160526e-01 5.1100000000e-04 0.0000e+00 1.0000e+00
      255  1    3    3    0    0 +7.5495178239e+01 -1.0394078264e+02 -2.1347944485e+01 1.8051022954e+02 1.2500000000e+02 0.0000e+00 0.0000e+00
      -11  1    4    4    0    0 -4.9106683529e-02 -8.0895611953e-03 -4.2538984133e-01 4.2829158946e-01 5.1100000000e-04 0.0000e+00 -1.0000e+00
      255  1    4    4    0    0 -7.5597820493e+01 +1.0406800651e+02 -4.7634308743e+02 5.0899206024e+02 1.2500000000e+02 0.0000e+00 0.0000e+00
<mgrwt>
<rscale>  0 0.47758697E+03</rscale>
<asrwt>0</asrwt>
<pdfrwt beam="1">  1        3 0.14764490E-01 0.47758697E+03</pdfrwt>
<pdfrwt beam="2">  1       -3 0.91411281E-01 0.47758697E+03</pdfrwt>
<totfact> 0.11019721E+02</totfact>
</mgrwt>
</event>
<event>
 8      1 +1.6198320e-01 4.58146600e+02 7.81860800e-03 1.02532000e-01
       -1 -1    0    0    0  501 -0.0000000000e+00 +0.0000000000e+00 +2.1783867444e+02 2.1783867450e+02 5.0400000000e-03 0.0000e+00 -1.0000e+00
        1 -1    0    0  501    0 +0.0000000000e+00 -0.0000000000e+00 -2.4088735894e+02 2.4088735900e+02 5.0400000000e-03 0.0000e+00 1.0000e+00
  1000101  2    1    2    0    0 +9.1379839043e+01 -6.5914588666e+01 -1.6705777903e+02 2.3717783284e+02 1.2510001949e+02 1.4902e+01 0.0000e+00
 -1000101  2    1    2    0    0 -9.1379839043e+01 +6.5914588666e+01 +1.4400909453e+02 2.2154820066e+02 1.2509987181e+02 1.0459e+01 0.0000e+00
       11  1    3    3    0    0 +3.1523397877e-02 +5.1518560119e-02 -1.2386790434e-01 1.3780930846e-01 5.1100000000e-04 0.0000e+00 1.0000e+00
      255  1    3    3    0    0 +9.1348315646e+01 -6.5966107226e+01 -1.6693391112e+02 2.3704002353e+02 1.2500000000e+02 0.0000e+00 0.0000e+00
      -11  1    4    4    0    0 -1.4716959762e-01 +1.5709324200e-01 +1.6939554561e-01 2.7392022404e-01 5.1100000000e-04 0.0000e+00 -1.0000e+00
      255  1    4    4    0    0 -9.1232669446e+01 +6.5757495424e+01 +1.4383969898e+02 2.2127428043e+02 1.2500000000e+02 0.0000e+00 0.0000e+00
<mgrwt>
<rscale>  0 0.45814663E+03</rscale>
<asrwt>0</asrwt>
<pdfrwt beam="1">  1        1 0.37059594E-01 0.45814663E+03</pdfrwt>
<pdfrwt beam="2">  1       -1 0.33513642E-01 0.45814663E+03</pdfrwt>
<totfact> 0.98059775E+02</totfact>
</mgrwt>
</event>
<event>
 8      1 +1.6198320e-01 3.19935500e+02 7.81860800e-03 1.07567900e-01
        2 -1    0    0  501    0 +0.0000000000e+00 +0.0000000000e+00 +6.5643499583e+01 6.5643499633e+01 2.5500000000e-03 0.0000e+00 1.0000e+00
       -2 -1    0    0    0  501 -0.0000000000e+00 -0.0000000000e+00 -3.8982812807e+02 3.8982812807e+02 2.5500000000e-03 0.0000e+00 -1.0000e+00
  1000101  2    1    2    0    0 -4.2571762598e+01 -7.2714750081e+01 -8.6226008206e+01 1.7373752346e+02 1.2510001085e+02 2.2095e+02 0.0000e+00
 -1000101  2    1    2    0    0 +4.2571762598e+01 +7.2714750081e+01 -2.3795862028e+02 2.8173410425e+02 1.2510000273e+02 0.0000e+00 0.0000e+00
       11  1    3    3    0    0 +1.9888536008e-02 -5.7675142648e-02 +3.8500027961e-02 7.2142145925e-02 5.1100000000e-04 0.0000e+00 1.0000e+00
      255  1    3    3    0    0 -4.2591651134e+01 -7.2657074938e+01 -8.6264508234e+01 1.7366538131e+02 1.2500000000e+02 0.0000e+00 0.0000e+00
      -11  1    4    4    0    0 -2.8499827681e-02 +9.2124276867e-02 -3.1930628869e-01 3.3355043049e-01 5.1100000000e-04 0.0000e+00 -1.0000e+00
      255  1    4    4    0    0 +4.2600262425e+01 +7.2622625804e+01 -2.3763931399e+02 2.8140055382e+02 1.2500000000e+02 0.0000e+00 0.0000e+00
<mgrwt>
<rscale>  0 0.31993551E+03</rscale>
<asrwt>0</asrwt>
<pdfrwt beam="1">  1        2 0.10099000E-01 0.31993551E+03</pdfrwt>
<pdfrwt beam="2">  1       -2 0.59973557E-01 0.31993551E+03</pdfrwt>
<totfact> 0.16804073E+03</totfact>
</mgrwt>
</event>
<event>
 8      1 +1.6198320e-01 3.56043600e+02 7.81860800e-03 1.06016100e-01
        2 -1    0    0  501    0 +0.0000000000e+00 +0.0000000000e+00 +7.0499259927e+01 7.0499259974e+01 2.5500000000e-03 0.0000e+00 1.0000e+00
       -2 -1    0    0    0  501 -0.0000000000e+00 -0.0000000000e+00 -4.4953316431e+02 4.4953316432e+02 2.5500000000e-03 0.0000e+00 -1.0000e+00
  1000101  2    1    2    0    0 -7.4971286165e+01 -1.0131572709e+02 -2.0777604846e+02 2.7332474753e+02 1.2509980414e+02 1.7927e+02 0.0000e+00
 -1000101  2    1    2    0    0 +7.4971286165e+01 +1.0131572709e+02 -1.7125785592e+02 2.4670767676e+02 1.2509937750e+02 5.6384e+01 0.0000e+00
       11  1    3    3    0    0 +6.0061930421e-03 -6.0238440365e-02 -2.4603826379e-01 2.5337685850e-01 5.1100000000e-04 0.0000e+00 1.0000e+00
      255  1    3    3    0    0 -7.4977292358e+01 -1.0125548865e+02 -2.0753001020e+02 2.7307137068e+02 1.2500000000e+02 0.0000e+00 0.0000e+00
      -11  1    4    4    0    0 -4.9274723514e-02 +1.3776211176e-03 -3.6886067112e-02 6.1568979903e-02 5.1100000000e-04 0.0000e+00 -1.0000e+00
      255  1    4    4    0    0 +7.5020560888e+01 +1.0131434947e+02 -1.7122096986e+02 2.4664610778e+02 1.2500000000e+02 0.0000e+00 0.0000e+00
<mgrwt>
<rscale>  0 0.35604357E+03</rscale>
<asrwt>0</asrwt>
<pdfrwt beam="1">  1        2 0.10846040E-01 0.35604357E+03</pdfrwt>
<pdfrwt beam="2">  1       -2 0.69158946E-01 0.35604357E+03</pdfrwt>
<totfact> 0.11399062E+03</totfact>
</mgrwt>
</event>
<event>
 8      1 +1.6198320e-01 5.45163000e+02 7.81860800e-03 1.00262000e-01
        2 -1    0    0  501    0 +0.0000000000e+00 +0.0000000000e+00 +1.6644242862e+03 1.6644242862e+03 2.5500000000e-03 0.0000e+00 1.0000e+00
       -2 -1    0    0    0  501 -0.0000000000e+00 -0.0000000000e+00 -4.4640470556e+01 4.4640470629e+01 2.5500000000e-03 0.0000e+00 -1.0000e+00
  1000101  2    1    2    0    0 +1.0305853525e+02 +3.2341178406e+01 +1.4894167001e+03 1.4985590220e+03 1.2510004947e+02 9.7144e+01 0.0000e+00
 -1000101  2    1    2    0    0 -1.0305853525e+02 -3.2341178406e+01 +1.3036711559e+02 2.1050573488e+02 1.2510022413e+02 2.6323e+02 0.0000e+00
       11  1    3    3    0    0 +1.7555224171e-01 +2.8635582460e-02 +2.3441532528e+00 2.3508920264e+00 5.1100000000e-04 0.0000e+00 1.0000e+00
      255  1    3    3    0    0 +1.0288298301e+02 +3.2312542823e+01 +1.4870725468e+03 1.4962081299e+03 1.2500000000e+02 0.0000e+00 0.0000e+00
      -11  1    4    4    0    0 -1.5927491250e-01 +2.4379515068e-02 +6.3883523084e-02 1.7333269787e-01 5.1100000000e-04 0.0000e+00 -1.0000e+00
      255  1    4    4    0    0 -1.0289926034e+02 -3.2365557921e+01 +1.3030323207e+02 2.1033240218e+02 1.2500000000e+02 0.0000e+00 0.0000e+00
<mgrwt>
<rscale>  0 0.54516303E+03</rscale>
<asrwt>0</asrwt>
<pdfrwt beam="1">  1        2 0.25606528E+00 0.54516303E+03</pdfrwt>
<pdfrwt beam="2">  1       -2 0.68677645E-02 0.54516303E+03</pdfrwt>
<totfact> 0.13193067E+03</totfact>
</mgrwt>
</event>
<event>
 8      1 +1.6198320e-01 2.53951800e+02 7.81860800e-03 1.11083300e-01
        2 -1    0    0  501    0 +0.0000000000e+00 +0.0000000000e+00 +1.0566563959e+03 1.0566563959e+03 2.5500000000e-03 0.0000e+00 1.0000e+00
       -2 -1    0    0    0  501 -0.0000000000e+00 -0.0000000000e+00 -1.5258392479e+01 1.5258392692e+01 2.5500000000e-03 0.0000e+00 -1.0000e+00
  1000101  2    1    2    0    0 +1.0529163119e+01 -9.1052890191e+00 +5.9118796429e+02 6.0443939777e+02 1.2509998756e+02 8.2099e+01 0.0000e+00
 -1000101  2    1    2    0    0 -1.0529163119e+01 +9.1052890191e+00 +4.5021003916e+02 4.6747539085e+02 1.2510152730e+02 1.7288e+02 0.0000e+00
       11  1    3    3    0    0 +6.6290128916e-02 +6.3054784798e-02 +6.6876779473e-01 6.7499697145e-01 5.1100000000e-04 0.0000e+00 1.0000e+00
      255  1    3    3    0    0 +1.0462872990e+01 -9.1683438039e+00 +5.9051919649e+02 6.0376440079e+02 1.2500000000e+02 0.0000e+00 0.0000e+00
      -11  1    4    4    0    0 -3.6536478925e-02 -8.7569360842e-02 +4.3366659120e-01 4.4392598561e-01 5.1100000000e-04 0.0000e+00 -1.0000e+00
      255  1    4    4    0    0 -1.0492626640e+01 +9.1928583799e+00 +4.4977637257e+02 4.6703146487e+02 1.2500000000e+02 0.0000e+00 0.0000e+00
<mgrwt>
<rscale>  0 0.25395179E+03</rscale>
<asrwt>0</asrwt>
<pdfrwt beam="1">  1        2 0.16256248E+00 0.25395179E+03</pdfrwt>
<pdfrwt beam="2">  1       -2 0.23474456E-02 0.25395179E+03</pdfrwt>
<totfact> 0.14707867E+04</totfact>
</mgrwt>
</event>
<event>
 8      1 +1.6198320e-01 3.22126500e+02 7.81860800e-03 1.07467500e-01
       -2 -1    0    0    0  501 -0.0000000000e+00 +0.0000000000e+00 +1.1043454145e+01 1.1043454439e+01 2.5500000000e-03 0.0000e+00 -1.0000e+00
        2 -1    0    0  501    0 +0.0000000000e+00 -0.0000000000e+00 -2.3490267096e+03 2.3490267096e+03 2.5500000000e-03 0.0000e+00 1.0000e+00
  1000101  2    1    2    0    0 -2.5844044502e+00 -5.2509816986e+01 -5.3334038014e+02 5.5033264498e+02 1.2510035581e+02 8.1690e+01 0.0000e+00
 -1000101  2    1    2    0    0 +2.5844044502e+00 +5.2509816986e+01 -1.8046428753e+03 1.8097375191e+03 1.2510004164e+02 5.0308e+01 0.0000e+00
       11  1    3    3    0    0 -5.9642721729e-02 -8.5120996975e-02 -7.9022366207e-01 7.9702982102e-01 5.1100000000e-04 0.0000e+00 1.0000e+00
      255  1    3    3    0    0 -2.5247617285e+00 -5.2424695989e+01 -5.3255015647e+02 5.4953561516e+02 1.2500000000e+02 0.0000e+00 0.0000e+00
      -11  1    4    4    0    0 -7.4483132378e-02 -1.0018718015e-02 -5.7391165849e-01 5.7881168319e-01 5.1100000000e-04 0.0000e+00 -1.0000e+00
      255  1    4    4    0    0 +2.6588875826e+00 +5.2519835704e+01 -1.8040689637e+03 1.8091587074e+03 1.2500000000e+02 0.0000e+00 0.0000e+00
<mgrwt>
<rscale>  0 0.32212649E+03</rscale>
<asrwt>0</asrwt>
<pdfrwt beam="1">  1        2 0.36138833E+00 0.32212649E+03</pdfrwt>
<pdfrwt beam="2">  1       -2 0.16989948E-02 0.32212649E+03</pdfrwt>
<totfact> 0.47556659E+03</totfact>
</mgrwt>
</event>
<event>
 8      1 +1.6198320e-01 4.07658000e+02 7.81860800e-03 1.04116000e-01
       -2 -1    0    0    0  501 -0.0000000000e+00 +0.0000000000e+00 +2.5915140193e+01 2.5915140319e+01 2.5500000000e-03 0.0000e+00 -1.0000e+00
        2 -1    0    0  501    0 +0.0000000000e+00 -0.0000000000e+00 -1.6031659055e+03 1.6031659055e+03 2.5500000000e-03 0.0000e+00 1.0000e+00
  1000101  2    1    2    0    0 +6.8831880545e+01 -1.3945964466e+02 -6.2340097293e+02 6.5457282956e+02 1.2509994356e+02 3.2468e+01 0.0000e+00
 -1000101  2    1    2    0    0 -6.8831880545e+01 +1.3945964466e+02 -9.5384979242e+02 9.7450821630e+02 1.2510002749e+02 7.1160e+01 0.0000e+00
       11  1    3    3    0    0 +3.1295562567e-02 -1.4426284872e-01 -8.4751202488e-01 8.6027209370e-01 5.1100000000e-04 0.0000e+00 1.0000e+00
      255  1    3    3    0    0 +6.8800584982e+01 -1.3931538181e+02 -6.2255346090e+02 6.5371255746e+02 1.2500000000e+02 0.0000e+00 0.0000e+00
      -11  1    4    4    0    0 -4.5793061480e-03 +2.2705139453e-02 -8.4210981964e-03 2.4650951681e-02 5.1100000000e-04 0.0000e+00 -1.0000e+00
      255  1    4    4    0    0 -6.8827301239e+01 +1.3943693952e+02 -9.5384137132e+02 9.7448356535e+02 1.2500000000e+02 0.0000e+00 0.0000e+00
<mgrwt>
<rscale>  0 0.40765804E+03</rscale>
<asrwt>0</asrwt>
<pdfrwt beam="1">  1        2 0.24664083E+00 0.40765804E+03</pdfrwt>
<pdfrwt beam="2">  1       -2 0.39869459E-02 0.40765804E+03</pdfrwt>
<totfact> 0.33181276E+03</totfact>
</mgrwt>
</event>
<event>
 8      1 +1.6198320e-01 3.21663500e+02 7.81860800e-03 1.07488600e-01
       -1 -1    0    0    0  501 -0.0000000000e+00 +0.0000000000e+00 +5.7477640383e+01 5.7477640604e+01 5.0400000000e-03 0.0000e+00 1.0000e+00
        1 -1    0    0  501    0 +0.0000000000e+00 -0.0000000000e+00 -4.5003332681e+02 4.5003332684e+02 5.0400000000e-03 0.0000e+00 -1.0000e+00
  1000101  2    1    2    0    0 -7.2171750662e+01 -8.3437918585e+00 -8.5401201711e+01 1.6799326910e+02 1.2509993107e+02 3.6397e+02 0.0000e+00
 -1000101  2    1    2    0    0 +7.2171750662e+01 +8.3437918585e+00 -3.0715448472e+02 3.3951769834e+02 1.2509999819e+02 6.0846e+01 0.0000e+00
       11  1    3    3    0    0 -1.3400379088e-01 -7.4277792588e-02 -5.0524057564e-02 1.6132931524e-01 5.1100000000e-04 0.0000e+00 1.0000e+00
      255  1    3    3    0    0 -7.2037746871e+01 -8.2695140659e+00 -8.5350677653e+01 1.6783193979e+02 1.2500000000e+02 0.0000e+00 0.0000e+00
      -11  1    4    4    0    0 +1.6984792305e-01 +4.6013586530e-03 -4.1758446774e-01 4.5082872389e-01 5.1100000000e-04 0.0000e+00 -1.0000e+00
      255  1    4    4    0    0 +7.2001902739e+01 +8.3391904998e+00 -3.0673690025e+02 3.3906686962e+02 1.2500000000e+02 0.0000e+00 0.0000e+00
<mgrwt>
<rscale>  0 0.32166351E+03</rscale>
<asrwt>0</asrwt>
<pdfrwt beam="1">  1        1 0.69235894E-01 0.32166351E+03</pdfrwt>
<pdfrwt beam="2">  1       -1 0.88427142E-02 0.32166351E+03</pdfrwt>
<totfact> 0.38352498E+03</totfact>
</mgrwt>
</event>
<event>
 8      1 +1.6198320e-01 3.24719900e+02 7.81860800e-03 1.07349700e-01
       -2 -1    0    0    0  501 -0.0000000000e+00 +0.0000000000e+00 +3.9149064781e+02 3.9149064782e+02 2.5500000000e-03 0.0000e+00 -1.0000e+00
        2 -1    0    0  501    0 +0.0000000000e+00 -0.0000000000e+00 -6.7334294749e+01 6.7334294797e+01 2.5500000000e-03 0.0000e+00 1.0000e+00
  1000101  2    1    2    0    0 -7.2931839178e+01 -5.4027381835e+01 +2.3234181366e+02 2.7905334415e+02 1.2510011732e+02 8.9817e+01 0.0000e+00
 -1000101  2    1    2    0    0 +7.2931839178e+01 +5.4027381835e+01 +9.1814539402e+01 1.7977159847e+02 1.2509958759e+02 1.1737e+02 0.0000e+00
       11  1    3    3    0    0 -2.8438623957e-02 -1.0715931701e-01 +3.2719956346e-01 3.4547313934e-01 5.1100000000e-04 0.0000e+00 1.0000e+00
      255  1    3    3    0    0 -7.2903400554e+01 -5.3920222518e+01 +2.3201461410e+02 2.7870787101e+02 1.2500000000e+02 0.0000e+00 0.0000e+00
      -11  1    4    4    0    0 -7.6972773240e-03 +2.2917943835e-03 +1.3612466342e-01 1.3636233172e-01 5.1100000000e-04 0.0000e+00 -1.0000e+00
      255  1    4    4    0    0 +7.2939536455e+01 +5.4025090041e+01 +9.1678414738e+01 1.7963523613e+02 1.2500000000e+02 0.0000e+00 0.0000e+00
<mgrwt>
<rscale>  0 0.32471986E+03</rscale>
<asrwt>0</asrwt>
<pdfrwt beam="1">  1        2 0.10359122E-01 0.32471986E+03</pdfrwt>
<pdfrwt beam="2">  1       -2 0.60229330E-01 0.32471986E+03</pdfrwt>
<totfact> 0.16141302E+03</totfact>
</mgrwt>
</event>
<event>
 8      1 +1.6198320e-01 3.02511900e+02 7.81860800e-03 1.08399200e-01
       -1 -1    0    0    0  501 -0.0000000000e+00 +0.0000000000e+00 +6.5872788645e+01 6.5872788838e+01 5.0400000000e-03 0.0000e+00 -1.0000e+00
        1 -1    0    0  501    0 +0.0000000000e+00 -0.0000000000e+00 -3.4731129627e+02 3.4731129630e+02 5.0400000000e-03 0.0000e+00 1.0000e+00
  1000101  2    1    2    0    0 -4.8282724840e+01 -2.8417096814e+01 -2.2806484368e+02 2.6608708607e+02 1.2510000615e+02 3.2224e+02 0.0000e+00
 -1000101  2    1    2    0    0 +4.8282724840e+01 +2.8417096814e+01 -5.3373663941e+01 1.4709699908e+02 1.2510006485e+02 5.6756e+01 0.0000e+00
       11  1    3    3    0    0 -2.2603166272e-02 +7.7858669935e-02 -1.7319054537e-01 1.9122787908e-01 5.1100000000e-04 0.0000e+00 1.0000e+00
      255  1    3    3    0    0 -4.8260121674e+01 -2.8494955484e+01 -2.2789165314e+02 2.6589585819e+02 1.2500000000e+02 0.0000e+00 0.0000e+00
      -11  1    4    4    0    0 +1.0688238127e-01 -1.7576384804e-02 +1.8789395061e-02 1.0993668731e-01 5.1100000000e-04 0.0000e+00 -1.0000e+00
      255  1    4    4    0    0 +4.8175842459e+01 +2.8434673199e+01 -5.3392453336e+01 1.4698706239e+02 1.2500000000e+02 0.0000e+00 0.0000e+00
<mgrwt>
<rscale>  0 0.30251191E+03</rscale>
<asrwt>0</asrwt>
<pdfrwt beam="1">  1        1 0.53432506E-01 0.30251191E+03</pdfrwt>
<pdfrwt beam="2">  1       -1 0.10134275E-01 0.30251191E+03</pdfrwt>
<totfact> 0.43316236E+03</totfact>
</mgrwt>
</event>
<event>
 8      1 +1.6198320e-01 5.25027100e+02 7.81860800e-03 1.00744500e-01
       -1 -1    0    0    0  501 -0.0000000000e+00 +0.0000000000e+00 +3.4077095803e+02 3.4077095807e+02 5.0400000000e-03 0.0000e+00 -1.0000e+00
        1 -1    0    0  501    0 +0.0000000000e+00 -0.0000000000e+00 -2.0222778066e+02 2.0222778073e+02 5.0400000000e-03 0.0000e+00 1.0000e+00
  1000101  2    1    2    0    0 +1.7266950186e+02 +1.4488180675e+02 +1.7998322312e+01 2.5841732466e+02 1.2510027689e+02 7.2518e+01 0.0000e+00
 -1000101  2    1    2    0    0 -1.7266950186e+02 -1.4488180675e+02 +1.2054485506e+02 2.8458141414e+02 1.2510005752e+02 1.1212e+02 0.0000e+00
       11  1    3    3    0    0 +7.5018063618e-02 +3.5366002836e-02 -7.6925615358e-02 1.1312062343e-01 5.1100000000e-04 0.0000e+00 1.0000e+00
      255  1    3    3    0    0 +1.7259448379e+02 +1.4484644075e+02 +1.8075247927e+01 2.5830420403e+02 1.2500000000e+02 0.0000e+00 0.0000e+00
      -11  1    4    4    0    0 -1.2689041573e-01 -2.6220707921e-02 +1.4888628816e-01 1.9737297447e-01 5.1100000000e-04 0.0000e+00 -1.0000e+00
      255  1    4    4    0    0 -1.7254261144e+02 -1.4485558605e+02 +1.2039596877e+02 2.8438404116e+02 1.2500000000e+02 0.0000e+00 0.0000e+00
<mgrwt>
<rscale>  0 0.52502706E+03</rscale>
<asrwt>0</asrwt>
<pdfrwt beam="1">  1        1 0.31111967E-01 0.52502706E+03</pdfrwt>
<pdfrwt beam="2">  1       -1 0.52426301E-01 0.52502706E+03</pdfrwt>
<totfact> 0.54313411E+02</totfact>
</mgrwt>
</event>
<event>
 8      1 +1.6198320e-01 3.63414500e+02 7.81860800e-03 1.05724000e-01
        2 -1    0    0  501    0 +0.0000000000e+00 +0.0000000000e+00 +6.7233468638e+01 6.7233468686e+01 2.5500000000e-03 0.0000e+00 1.0000e+00
       -2 -1    0    0    0  501 -0.0000000000e+00 -0.0000000000e+00 -4.9108771515e+02 4.9108771516e+02 2.5500000000e-03 0.0000e+00 -1.0000e+00
  1000101  2    1    2    0    0 -2.4091410554e+01 +1.0150826603e+02 -3.3562886904e+02 3.7306984675e+02 1.2510015462e+02 1.3846e+02 0.0000e+00
 -1000101  2    1    2    0    0 +2.4091410554e+01 -1.0150826603e+02 -8.8225377475e+01 1.8525133710e+02 1.2510002611e+02 9.7809e+01 0.0000e+00
       11  1    3    3    0    0 -1.2117190600e-01 +9.9882489142e-02 -3.2884109332e-01 3.6441167410e-01 5.1100000000e-04 0.0000e+00 1.0000e+00
      255  1    3    3    0    0 -2.3970238648e+01 +1.0140838354e+02 -3.3530002795e+02 3.7270543507e+02 1.2500000000e+02 0.0000e+00 0.0000e+00
      -11  1    4    4    0    0 +8.7344383100e-02 -2.4895949944e-02 -1.1740360770e-01 1.4843422046e-01 5.1100000000e-04 0.0000e+00 -1.0000e+00
      255  1    4    4    0    0 +2.4004066171e+01 -1.0148337008e+02 -8.8107973868e+01 1.8510290288e+02 1.2500000000e+02 0.0000e+00 0.0000e+00
<mgrwt>
<rscale>  0 0.36341453E+03</rscale>
<asrwt>0</asrwt>
<pdfrwt beam="1">  1        2 0.10343611E-01 0.36341453E+03</pdfrwt>
<pdfrwt beam="2">  1       -2 0.75551954E-01 0.36341453E+03</pdfrwt>
<totfact> 0.99847054E+02</totfact>
</mgrwt>
</event>
<event>
 8      1 +1.6198320e-01 2.99634500e+02 7.81860800e-03 1.08542300e-01
       -2 -1    0    0    0  501 -0.0000000000e+00 +0.0000000000e+00 +9.6150885254e+01 9.6150885288e+01 2.5500000000e-03 0.0000e+00 -1.0000e+00
        2 -1    0    0  501    0 +0.0000000000e+00 -0.0000000000e+00 -2.3343733840e+02 2.3343733842e+02 2.5500000000e-03 0.0000e+00 1.0000e+00
  1000101  2    1    2    0    0 -5.4413041415e+01 +4.8754976503e+01 -2.6651724856e+01 1.4730305737e+02 1.2510015772e+02 4.4649e+01 0.0000e+00
 -1000101  2    1    2    0    0 +5.4413041415e+01 -4.8754976503e+01 -1.1063472829e+02 1.8228516634e+02 1.2510000781e+02 1.2020e+02 0.0000e+00
       11  1    3    3    0    0 -8.2551779890e-02 -5.1976999292e-02 -4.0593841125e-02 1.0566232004e-01 5.1100000000e-04 0.0000e+00 1.0000e+00
      255  1    3    3    0    0 -5.4330489635e+01 +4.8806953503e+01 -2.6611131014e+01 1.4719739505e+02 1.2500000000e+02 0.0000e+00 0.0000e+00
      -11  1    4    4    0    0 +1.1686779092e-01 -1.1225194016e-01 -7.2532856053e-02 1.7753831967e-01 5.1100000000e-04 0.0000e+00 -1.0000e+00
      255  1    4    4    0    0 +5.4296173624e+01 -4.8642724563e+01 -1.1056219544e+02 1.8210762802e+02 1.2500000000e+02 0.0000e+00 0.0000e+00
<mgrwt>
<rscale>  0 0.29963449E+03</rscale>
<asrwt>0</asrwt>
<pdfrwt beam="1">  1        2 0.35913437E-01 0.29963449E+03</pdfrwt>
<pdfrwt beam="2">  1       -2 0.14792444E-01 0.29963449E+03</pdfrwt>
<totfact> 0.50238134E+03</totfact>
</mgrwt>
</event>
<event>
 8      1 +1.6198320e-01 4.38543900e+02 7.81860800e-03 1.03119400e-01
       -2 -1    0    0    0  501 -0.0000000000e+00 +0.0000000000e+00 +4.1207035276e+01 4.1207035355e+01 2.5500000000e-03 0.0000e+00 -1.0000e+00
        2 -1    0    0  501    0 +0.0000000000e+00 -0.0000000000e+00 -1.1667957585e+03 1.1667957585e+03 2.5500000000e-03 0.0000e+00 1.0000e+00
  1000101  2    1    2    0    0 -1.5878692782e+02 +7.7864338136e+01 -4.6921743861e+02 5.1680858430e+02 1.2509981818e+02 3.0944e+01 0.0000e+00
 -1000101  2    1    2    0    0 +1.5878692782e+02 -7.7864338136e+01 -6.5637128463e+02 6.9119420958e+02 1.2510007379e+02 6.9965e+01 0.0000e+00
       11  1    3    3    0    0 -2.1678074334e-01 +1.9876628777e-02 -3.6193803336e-01 4.2236047657e-01 5.1100000000e-04 0.0000e+00 1.0000e+00
      255  1    3    3    0    0 -1.5857014708e+02 +7.7844461507e+01 -4.6885550058e+02 5.1638622382e+02 1.2500000000e+02 0.0000e+00 0.0000e+00
      -11  1    4    4    0    0 +2.8747214644e-01 -1.1552957543e-01 -9.0420498848e-01 9.5581077631e-01 5.1100000000e-04 0.0000e+00 -1.0000e+00
      255  1    4    4    0    0 +1.5849945568e+02 -7.7748808560e+01 -6.5546707965e+02 6.9023839880e+02 1.2500000000e+02 0.0000e+00 0.0000e+00
<mgrwt>
<rscale>  0 0.43854393E+03</rscale>
<asrwt>0</asrwt>
<pdfrwt beam="1">  1        2 0.17950702E+00 0.43854393E+03</pdfrwt>
<pdfrwt beam="2">  1       -2 0.63395448E-02 0.43854393E+03</pdfrwt>
<totfact> 0.28431755E+03</totfact>
</mgrwt>
</event>
<event>
 8      1 +1.6198320e-01 4.49444200e+02 7.81860800e-03 1.02788800e-01
       -1 -1    0    0    0  501 -0.0000000000e+00 +0.0000000000e+00 +6.2321164144e+02 6.2321164146e+02 5.0400000000e-03 0.0000e+00 -1.0000e+00
        1 -1    0    0  501    0 +0.0000000000e+00 -0.0000000000e+00 -8.1031880448e+01 8.1031880605e+01 5.0400000000e-03 0.0000e+00 1.0000e+00
  1000101  2    1    2    0    0 -1.5278502247e+02 +2.2597315739e+01 +4.3540076331e+02 4.7862067079e+02 1.2510004016e+02 1.8530e+02 0.0000e+00
 -1000101  2    1    2    0    0 +1.5278502247e+02 -2.2597315739e+01 +1.0677899769e+02 2.2562285128e+02 1.2510001960e+02 1.1338e+02 0.0000e+00
       11  1    3    3    0    0 -5.7956597272e-03 -2.1294218059e-02 +2.8949829122e-01 2.9033869039e-01 5.1100000000e-04 0.0000e+00 1.0000e+00
      255  1    3    3    0    0 -1.5277922681e+02 +2.2618609957e+01 +4.3511126501e+02 4.7833033209e+02 1.2500000000e+02 0.0000e+00 0.0000e+00
      -11  1    4    4    0    0 +1.5983998359e-02 +3.9765062772e-02 +1.0179973389e-01 1.1045449453e-01 5.1100000000e-04 0.0000e+00 -1.0000e+00
      255  1    4    4    0    0 +1.5276903847e+02 -2.2637080802e+01 +1.0667719796e+02 2.2551239679e+02 1.2500000000e+02 0.0000e+00 0.0000e+00
<mgrwt>
<rscale>  0 0.44944415E+03</rscale>
<asrwt>0</asrwt>
<pdfrwt beam="1">  1        1 0.12466444E-01 0.44944415E+03</pdfrwt>
<pdfrwt beam="2">  1       -1 0.95878711E-01 0.44944415E+03</pdfrwt>
<totfact> 0.52743747E+02</totfact>
</mgrwt>
</event>
<event>
 8      1 +1.6198320e-01 2.68941900e+02 7.81860800e-03 1.10188700e-01
       -2 -1    0    0    0  501 -0.0000000000e+00 +0.0000000000e+00 +1.3172426699e+01 1.3172426945e+01 2.5500000000e-03 0.0000e+00 1.0000e+00
        2 -1    0    0  501    0 +0.0000000000e+00 -0.0000000000e+00 -1.3727492340e+03 1.3727492340e+03 2.5500000000e-03 0.0000e+00 -1.0000e+00
  1000101  2    1    2    0    0 +3.8501203403e+01 -8.8037431209e+00 -5.2756522095e+02 5.4363122127e+02 1.2509993537e+02 1.8872e+02 0.0000e+00
 -1000101  2    1    2    0    0 -3.8501203403e+01 +8.8037431209e+00 -8.3201158637e+02 8.4229043970e+02 1.2510018541e+02 5.5024e+01 0.0000e+00
       11  1    3    3    0    0 +1.2944247395e-01 -3.7123403107e-02 -6.1669711465e-01 6.3122824197e-01 5.1100000000e-04 0.0000e+00 1.0000e+00
      255  1    3    3    0    0 +3.8371760929e+01 -8.7666197178e+00 -5.2694852384e+02 5.4299999303e+02 1.2500000000e+02 0.0000e+00 0.0000e+00
      -11  1    4    4    0    0 -1.3377954344e-01 +2.3028870437e-03 -9.6682622628e-01 9.7604071763e-01 5.1100000000e-04 0.0000e+00 -1.0000e+00
      255  1    4    4    0    0 -3.8367423859e+01 +8.8014402339e+00 -8.3104476015e+02 8.4131439898e+02 1.2500000000e+02 0.0000e+00 0.0000e+00
<mgrwt>
<rscale>  0 0.26894192E+03</rscale>
<asrwt>0</asrwt>
<pdfrwt beam="1">  1        2 0.21119208E+00 0.26894192E+03</pdfrwt>
<pdfrwt beam="2">  1       -2 0.20265283E-02 0.26894192E+03</pdfrwt>
<totfact> 0.12112856E+04</totfact>
</mgrwt>
</event>
<event>
 8      1 +1.6198320e-01 2.95375600e+02 7.81860800e-03 1.08757500e-01
       -2 -1    0    0    0  501 -0.0000000000e+00 +0.0000000000e+00 +1.7106451761e+02 1.7106451763e+02 2.5500000000e-03 0.0000e+00 -1.0000e+00
        2 -1    0    0  501    0 +0.0000000000e+00 -0.0000000000e+00 -1.2750558135e+02 1.2750558137e+02 2.5500000000e-03 0.0000e+00 1.0000e+00
  1000101  2    1    2    0    0 +1.0796403214e+01 -6.0309059417e+01 -2.7822127122e+01 1.4204863011e+02 1.2509995039e+02 2.4652e+01 0.0000e+00
 -1000101  2    1    2    0    0 -1.0796403214e+01 +6.0309059417e+01 +7.1381063383e+01 1.5652146889e+02 1.2509983630e+02 1.2163e+02 0.0000e+00
       11  1    3    3    0    0 +7.3447066133e-02 -1.2703776482e-01 +3.6734019922e-03 1.4678835177e-01 5.1100000000e-04 0.0000e+00 1.0000e+00
      255  1    3    3    0    0 +1.0722956148e+01 -6.0182021652e+01 -2.7825800524e+01 1.4190184176e+02 1.2500000000e+02 0.0000e+00 0.0000e+00
      -11  1    4    4    0    0 -7.3377359358e-02 +7.4015278655e-02 +1.4750543287e-01 1.8061177201e-01 5.1100000000e-04 0.0000e+00 -1.0000e+00
      255  1    4    4    0    0 -1.0723025855e+01 +6.0235044138e+01 +7.1233557951e+01 1.5634085712e+02 1.2500000000e+02 0.0000e+00 0.0000e+00
<mgrwt>
<rscale>  0 0.29537556E+03</rscale>
<asrwt>0</asrwt>
<pdfrwt beam="1">  1        2 0.19616243E-01 0.29537556E+03</pdfrwt>
<pdfrwt beam="2">  1       -2 0.26317618E-01 0.29537556E+03</pdfrwt>
<totfact> 0.36743618E+03</totfact>
</mgrwt>
</event>
<event>
 8      1 +1.6198320e-01 2.96459700e+02 7.81860800e-03 1.08702400e-01
       -1 -1    0    0    0  501 -0.0000000000e+00 +0.0000000000e+00 +3.4525267158e+01 3.4525267525e+01 5.0400000000e-03 0.0000e+00 -1.0000e+00
        1 -1    0    0  501    0 +0.0000000000e+00 -0.0000000000e+00 -6.3640582021e+02 6.3640582023e+02 5.0400000000e-03 0.0000e+00 1.0000e+00
  1000101  2    1    2    0    0 +3.0666428576e+01 +5.1268033177e+01 -1.8218980004e+02 2.2893659747e+02 1.2509996545e+02 3.7955e+01 0.0000e+00
 -1000101  2    1    2    0    0 -3.0666428576e+01 -5.1268033177e+01 -4.1969075301e+02 4.4199449029e+02 1.2509980100e+02 2.0473e+01 0.0000e+00
       11  1    3    3    0    0 +2.9968363179e-02 +1.4016873819e-01 -1.3037805637e-01 1.9376293934e-01 5.1100000000e-04 0.0000e+00 1.0000e+00
      255  1    3    3    0    0 +3.0636460213e+01 +5.1127864439e+01 -1.8205942199e+02 2.2874283453e+02 1.2500000000e+02 0.0000e+00 0.0000e+00
      -11  1    4    4    0    0 -8.8639559208e-02 -4.2569262003e-03 -5.5032790787e-01 5.5743713563e-01 5.1100000000e-04 0.0000e+00 -1.0000e+00
      255  1    4    4    0    0 -3.0577789017e+01 -5.1263776251e+01 -4.1914042510e+02 4.4143705315e+02 1.2500000000e+02 0.0000e+00 0.0000e+00
<mgrwt>
<rscale>  0 0.29645965E+03</rscale>
<asrwt>0</asrwt>
<pdfrwt beam="1">  1        1 0.97908579E-01 0.29645965E+03</pdfrwt>
<pdfrwt beam="2">  1       -1 0.53115801E-02 0.29645965E+03</pdfrwt>
<totfact> 0.51961259E+03</totfact>
</mgrwt>
</event>
<event>
 8      1 +1.6198320e-01 3.34105500e+02 7.81860800e-03 1.06933500e-01
        2 -1    0    0  501    0 +0.0000000000e+00 +0.0000000000e+00 +3.2884060355e+02 3.2884060356e+02 2.5500000000e-03 0.0000e+00 1.0000e+00
       -2 -1    0    0    0  501 -0.0000000000e+00 -0.0000000000e+00 -8.4863655877e+01 8.4863655915e+01 2.5500000000e-03 0.0000e+00 -1.0000e+00
  1000101  2    1    2    0    0 +3.8879585305e+01 +1.6821431392e+01 -4.6640712362e+00 1.3216036690e+02 1.2510006519e+02 6.4910e+01 0.0000e+00
 -1000101  2    1    2    0    0 -3.8879585305e+01 -1.6821431392e+01 +2.4864101891e+02 2.8154389258e+02 1.2510005777e+02 5.6648e+01 0.0000e+00
       11  1    3    3    0    0 +3.4412541675e-02 +8.1073800415e-02 +7.0225933034e-02 1.1264602492e-01 5.1100000000e-04 0.0000e+00 1.0000e+00
      255  1    3    3    0    0 +3.8845172763e+01 +1.6740357592e+01 -4.7342971692e+00 1.3204772088e+02 1.2500000000e+02 0.0000e+00 0.0000e+00
      -11  1    4    4    0    0 +4.6910207560e-02 -3.4058175760e-02 +2.7236171008e-02 6.4051518651e-02 5.1100000000e-04 0.0000e+00 -1.0000e+00
      255  1    4    4    0    0 -3.8926495512e+01 -1.6787373216e+01 +2.4861378274e+02 2.8147984106e+02 1.2500000000e+02 0.0000e+00 0.0000e+00
<mgrwt>
<rscale>  0 0.33410547E+03</rscale>
<asrwt>0</asrwt>
<pdfrwt beam="1">  1        2 0.50590864E-01 0.33410547E+03</pdfrwt>
<pdfrwt beam="2">  1       -2 0.13055947E-01 0.33410547E+03</pdfrwt>
<totfact> 0.42692690E+03</totfact>
</mgrwt>
</event>
<event>
 8      1 +1.6198320e-01 3.26379800e+02 7.81860800e-03 1.07275000e-01
       -1 -1    0    0    0  501 -0.0000000000e+00 +0.0000000000e+00 +6.7086094724e+01 6.7086094913e+01 5.0400000000e-03 0.0000e+00 -1.0000e+00
        1 -1    0    0  501    0 +0.0000000000e+00 -0.0000000000e+00 -3.9696666690e+02 3.9696666694e+02 5.0400000000e-03 0.0000e+00 1.0000e+00
  1000101  2    1    2    0    0 -1.0327188914e+00 +1.0150522561e+02 -1.2795719423e+02 2.0573634227e+02 1.2510004653e+02 1.1964e+02 0.0000e+00
 -1000101  2    1    2    0    0 +1.0327188914e+00 -1.0150522561e+02 -2.0192337795e+02 2.5831641958e+02 1.2509973911e+02 2.8820e+01 0.0000e+00
       11  1    3    3    0    0 -9.3488188391e-02 +3.3424240705e-02 -8.2035194441e-02 1.2879151946e-01 5.1100000000e-04 0.0000e+00 1.0000e+00
      255  1    3    3    0    0 -9.3923070299e-01 +1.0147180137e+02 -1.2787515904e+02 2.0560755075e+02 1.2500000000e+02 0.0000e+00 0.0000e+00
      -11  1    4    4    0    0 +8.5716045882e-02 -1.4149918571e-02 -1.1046747144e-01 1.4053748285e-01 5.1100000000e-04 0.0000e+00 -1.0000e+00
      255  1    4    4    0    0 +9.4700284550e-01 -1.0149107569e+02 -2.0181291048e+02 2.5817588209e+02 1.2500000000e+02 0.0000e+00 0.0000e+00
<mgrwt>
<rscale>  0 0.32637980E+03</rscale>
<asrwt>0</asrwt>
<pdfrwt beam="1">  1        1 0.61071794E-01 0.32637980E+03</pdfrwt>
<pdfrwt beam="2">  1       -1 0.10320938E-01 0.32637980E+03</pdfrwt>
<totfact> 0.35545410E+03</totfact>
</mgrwt>
</event>
<event>
 8      1 +1.6198320e-01 2.82478200e+02 7.81860800e-03 1.09434300e-01
        2 -1    0    0  501    0 +0.0000000000e+00 +0.0000000000e+00 +1.1507224472e+03 1.1507224472e+03 2.5500000000e-03 0.0000e+00 1.0000e+00
       -2 -1    0    0    0  501 -0.0000000000e+00 -0.0000000000e+00 -1.7335616667e+01 1.7335616855e+01 2.5500000000e-03 0.0000e+00 -1.0000e+00
  1000101  2    1    2    0    0 -3.4170044844e+01 +5.5344302837e+01 +5.3261340696e+02 5.5096062220e+02 1.2509988859e+02 1.8520e+02 0.0000e+00
 -1000101  2    1    2    0    0 +3.4170044844e+01 -5.5344302837e+01 +6.0077342356e+02 6.1709744184e+02 1.2509980995e+02 2.2679e+00 0.0000e+00
       11  1    3    3    0    0 +2.5747437853e-02 +9.0593177688e-02 +7.2259692358e-01 7.2870887842e-01 5.1100000000e-04 0.0000e+00 1.0000e+00
      255  1    3    3    0    0 -3.4195792282e+01 +5.5253709660e+01 +5.3189081003e+02 5.5023191332e+02 1.2500000000e+02 0.0000e+00 0.0000e+00
      -11  1    4    4    0    0 +7.0182807644e-02 -1.2200831033e-01 +3.8656072958e-01 4.1138924762e-01 5.1100000000e-04 0.0000e+00 -1.0000e+00
      255  1    4    4    0    0 +3.4099862037e+01 -5.5222294527e+01 +6.0038686283e+02 6.1668605259e+02 1.2500000000e+02 0.0000e+00 0.0000e+00
<mgrwt>
<rscale>  0 0.28247820E+03</rscale>
<asrwt>0</asrwt>
<pdfrwt beam="1">  1        2 0.17703426E+00 0.28247820E+03</pdfrwt>
<pdfrwt beam="2">  1       -2 0.26670175E-02 0.28247820E+03</pdfrwt>
<totfact> 0.10762014E+04</totfact>
</mgrwt>
</event>
<event>
 8      1 +1.6198320e-01 2.95429700e+02 7.81860800e-03 1.08754800e-01
        2 -1    0    0  501    0 +0.0000000000e+00 +0.0000000000e+00 +1.9809077485e+03 1.9809077485e+03 2.5500000000e-03 0.0000e+00 1.0000e+00
       -2 -1    0    0    0  501 -0.0000000000e+00 -0.0000000000e+00 -1.1014990737e+01 1.1014991032e+01 2.5500000000e-03 0.0000e+00 -1.0000e+00
  1000101  2    1    2    0    0 +1.6562796370e+01 +7.6288201526e+01 +9.2634270428e+02 9.3800588655e+02 1.2510004606e+02 1.1499e+02 0.0000e+00
 -1000101  2    1    2    0    0 -1.6562796370e+01 -7.6288201526e+01 +1.0435500535e+03 1.0539168530e+03 1.2509917247e+02 6.3478e+01 0.0000e+00
       11  1    3    3    0    0 +3.2551110281e-02 -4.8224719085e-02 +5.6177451863e-01 5.6477966431e-01 5.1100000000e-04 0.0000e+00 1.0000e+00
      255  1    3    3    0    0 +1.6530245259e+01 +7.6336426245e+01 +9.2578092976e+02 9.3744110689e+02 1.2500000000e+02 0.0000e+00 0.0000e+00
      -11  1    4    4    0    0 +7.6806765407e-02 -4.3704071158e-02 +3.8997746123e-01 3.9986498526e-01 5.1100000000e-04 0.0000e+00 -1.0000e+00
      255  1    4    4    0    0 -1.6639603135e+01 -7.6244497455e+01 +1.0431600760e+03 1.0535169880e+03 1.2500000000e+02 0.0000e+00 0.0000e+00
<mgrwt>
<rscale>  0 0.29542973E+03</rscale>
<asrwt>0</asrwt>
<pdfrwt beam="1">  1        2 0.30475505E+00 0.29542973E+03</pdfrwt>
<pdfrwt beam="2">  1       -2 0.16946139E-02 0.29542973E+03</pdfrwt>
<totfact> 0.75054179E+03</totfact>
</mgrwt>
</event>
<event>
 8      1 +1.6198320e-01 3.71324200e+02 7.81860800e-03 1.05418800e-01
       -2 -1    0    0    0  501 -0.0000000000e+00 +0.0000000000e+00 +4.1423016698e+01 4.1423016776e+01 2.5500000000e-03 0.0000e+00 -1.0000e+00
        2 -1    0    0  501    0 +0.0000000000e+00 -0.0000000000e+00 -8.3215614903e+02 8.3215614903e+02 2.5500000000e-03 0.0000e+00 1.0000e+00
  1000101  2    1    2    0    0 +3.7699939301e+01 +7.2532340911e+01 -6.5456086697e+02 6.7140313750e+02 1.2510003423e+02 8.7223e+01 0.0000e+00
 -1000101  2    1    2    0    0 -3.7699939301e+01 -7.2532340911e+01 -1.3617226536e+02 2.0217602831e+02 1.2510009860e+02 6.8300e+01 0.0000e+00
       11  1    3    3    0    0 -5.7699998226e-02 +3.0638077446e-02 -6.0539970760e-01 6.0891464810e-01 5.1100000000e-04 0.0000e+00 1.0000e+00
      255  1    3    3    0    0 +3.7757639299e+01 +7.2501702833e+01 -6.5395546727e+02 6.7079422285e+02 1.2500000000e+02 0.0000e+00 0.0000e+00
      -11  1    4    4    0    0 -6.7057357496e-02 -1.5576250466e-01 -9.5526632326e-02 1.9463875682e-01 5.1100000000e-04 0.0000e+00 -1.0000e+00
      255  1    4    4    0    0 -3.7632881943e+01 -7.2376578406e+01 -1.3607673873e+02 2.0198138956e+02 1.2500000000e+02 0.0000e+00 0.0000e+00
<mgrwt>
<rscale>  0 0.37132421E+03</rscale>
<asrwt>0</asrwt>
<pdfrwt beam="1">  1        2 0.12802401E+00 0.37132421E+03</pdfrwt>
<pdfrwt beam="2">  1       -2 0.63727724E-02 0.37132421E+03</pdfrwt>
<totfact> 0.45671296E+03</totfact>
</mgrwt>
</event>
<event>
 8      1 +1.6198320e-01 3.45842900e+02 7.81860800e-03 1.06433400e-01
       -2 -1    0    0    0  501 -0.0000000000e+00 +0.0000000000e+00 +6.4351798964e+01 6.4351799015e+01 2.5500000000e-03 0.0000e+00 -1.0000e+00
        2 -1    0    0  501    0 +0.0000000000e+00 -0.0000000000e+00 -4.6466189854e+02 4.6466189855e+02 2.5500000000e-03 0.0000e+00 1.0000e+00
  1000101  2    1    2    0    0 +7.1806860203e+01 -7.6937768142e+01 -1.1394825595e+02 1.9927325185e+02 1.2509987423e+02 4.5410e+01 0.0000e+00
 -1000101  2    1    2    0    0 -7.1806860203e+01 +7.6937768142e+01 -2.8636184363e+02 3.2974044571e+02 1.2510000285e+02 8.9666e+01 0.0000e+00
       11  1    3    3    0    0 -1.7876263263e-02 -9.9596977692e-02 -1.4811635244e-01 1.7938180993e-01 5.1100000000e-04 0.0000e+00 1.0000e+00
      255  1    3    3    0    0 +7.1824736466e+01 -7.6838171164e+01 -1.1380013960e+02 1.9909387004e+02 1.2500000000e+02 0.0000e+00 0.0000e+00
      -11  1    4    4    0    0 +2.5482828484e-02 -2.1203779373e-02 -7.5789013738e-03 3.4009934941e-02 5.1100000000e-04 0.0000e+00 -1.0000e+00
      255  1    4    4    0    0 -7.1832343031e+01 +7.6958971922e+01 -2.8635426473e+02 3.2970643578e+02 1.2500000000e+02 0.0000e+00 0.0000e+00
<mgrwt>
<rscale>  0 0.34584291E+03</rscale>
<asrwt>0</asrwt>
<pdfrwt beam="1">  1        2 0.71486444E-01 0.34584291E+03</pdfrwt>
<pdfrwt beam="2">  1       -2 0.99002770E-02 0.34584291E+03</pdfrwt>
<totfact> 0.45739635E+03</totfact>
</mgrwt>
</event>
<event>
 8      1 +1.6198320e-01 2.63905900e+02 7.81860800e-03 1.10481900e-01
       -2 -1    0    0    0  501 -0.0000000000e+00 +0.0000000000e+00 +2.0171300180e+01 2.0171300341e+01 2.5500000000e-03 0.0000e+00 -1.0000e+00
        2 -1    0    0  501    0 +0.0000000000e+00 -0.0000000000e+00 -8.6318604990e+02 8.6318604990e+02 2.5500000000e-03 0.0000e+00 1.0000e+00
  1000101  2    1    2    0    0 -3.5892799781e+01 -2.1428683186e+01 -4.3407713163e+02 4.5367438210e+02 1.2509998890e+02 5.6542e+01 0.0000e+00
 -1000101  2    1    2    0    0 +3.5892799781e+01 +2.1428683186e+01 -4.0893761808e+02 4.2968296815e+02 1.2509994441e+02 6.5536e+01 0.0000e+00
       11  1    3    3    0    0 -5.4511870341e-02 -1.1122497531e-01 -5.2707969737e-01 5.4143864624e-01 5.1100000000e-04 0.0000e+00 1.0000e+00
      255  1    3    3    0    0 -3.5838287911e+01 -2.1317458210e+01 -4.3355005194e+02 4.5313294345e+02 1.2500000000e+02 0.0000e+00 0.0000e+00
      -11  1    4    4    0    0 +5.8773612702e-02 +8.9752942378e-02 -1.7751642895e-01 2.0741810886e-01 5.1100000000e-04 0.0000e+00 -1.0000e+00
      255  1    4    4    0    0 +3.5834026168e+01 +2.1338930243e+01 -4.0876010165e+02 4.2947555004e+02 1.2500000000e+02 0.0000e+00 0.0000e+00
<mgrwt>
<rscale>  0 0.26390593E+03</rscale>
<asrwt>0</asrwt>
<pdfrwt beam="1">  1        2 0.13279783E+00 0.26390593E+03</pdfrwt>
<pdfrwt beam="2">  1       -2 0.31032776E-02 0.26390593E+03</pdfrwt>
<totfact> 0.12867724E+04</totfact>
</mgrwt>
</event>
<event>
 8      1 +1.6198320e-01 2.92144700e+02 7.81860800e-03 1.08923500e-01
        2 -1    0    0  501    0 +0.0000000000e+00 +0.0000000000e+00 +5.5767980211e+02 5.5767980212e+02 2.5500000000e-03 0.0000e+00 1.0000e+00
       -2 -1    0    0    0  501 -0.0000000000e+00 -0.0000000000e+00 -3.8260549564e+01 3.8260549649e+01 2.5500000000e-03 0.0000e+00 -1.0000e+00
  1000101  2    1    2    0    0 -1.6727887638e+01 +5.3736190186e+00 +1.1011046670e+02 1.6758015927e+02 1.2510034732e+02 1.8976e+02 0.0000e+00
 -1000101  2    1    2    0    0 +1.6727887638e+01 -5.3736190186e+00 +4.0930878585e+02 4.2836019250e+02 1.2510025713e+02 1.1401e+01 0.0000e+00
       11  1    3    3    0    0 +5.2017343863e-02 +7.7397228579e-02 +5.4715377630e-02 1.0812108363e-01 5.1100000000e-04 0.0000e+00 1.0000e+00
      255  1    3    3    0    0 -1.6779904982e+01 +5.2962217900e+00 +1.1005575132e+02 1.6747203819e+02 1.2500000000e+02 0.0000e+00 0.0000e+00
      -11  1    4    4    0    0 +1.8211242527e-03 -9.6685672130e-02 +2.0966629494e-01 2.3089316154e-01 5.1100000000e-04 0.0000e+00 -1.0000e+00
      255  1    4    4    0    0 +1.6726066514e+01 -5.2769333465e+00 +4.0909911956e+02 4.2812929934e+02 1.2500000000e+02 0.0000e+00 0.0000e+00
<mgrwt>
<rscale>  0 0.29214473E+03</rscale>
<asrwt>0</asrwt>
<pdfrwt beam="1">  1        2 0.85796886E-01 0.29214473E+03</pdfrwt>
<pdfrwt beam="2">  1       -2 0.58862388E-02 0.29214473E+03</pdfrwt>
<totfact> 0.83571202E+03</totfact>
</mgrwt>
</event>
<event>
 8      1 +1.6198320e-01 7.75865700e+02 7.81860800e-03 9.59562300e-02
       -2 -1    0    0    0  501 -0.0000000000e+00 +0.0000000000e+00 +1.1582854406e+02 1.1582854409e+02 2.5500000000e-03 0.0000e+00 -1.0000e+00
        2 -1    0    0  501    0 +0.0000000000e+00 -0.0000000000e+00 -1.2992641670e+03 1.2992641670e+03 2.5500000000e-03 0.0000e+00 1.0000e+00
  1000101  2    1    2    0    0 -1.5487108735e+01 -3.5891722279e+02 -7.3038679995e+02 8.2351461136e+02 1.2510001696e+02 4.2746e+01 0.0000e+00
 -1000101  2    1    2    0    0 +1.5487108735e+01 +3.5891722279e+02 -4.5304882301e+02 5.9157809975e+02 1.2509991494e+02 9.5873e+01 0.0000e+00
       11  1    3    3    0    0 +6.8563568511e-02 -4.3801162247e-01 -8.4628632614e-01 9.5538262036e-01 5.1100000000e-04 0.0000e+00 1.0000e+00
      255  1    3    3    0    0 -1.5555672304e+01 -3.5847921117e+02 -7.2954051362e+02 8.2255922874e+02 1.2500000000e+02 0.0000e+00 0.0000e+00
      -11  1    4    4    0    0 +7.9691674477e-02 +2.2784478385e-01 -4.0637475445e-01 4.7265707515e-01 5.1100000000e-04 0.0000e+00 -1.0000e+00
      255  1    4    4    0    0 +1.5407417061e+01 +3.5868937800e+02 -4.5264244826e+02 5.9110544267e+02 1.2500000000e+02 0.0000e+00 0.0000e+00
<mgrwt>
<rscale>  0 0.77586565E+03</rscale>
<asrwt>0</asrwt>
<pdfrwt beam="1">  1        2 0.19988678E+00 0.77586565E+03</pdfrwt>
<pdfrwt beam="2">  1       -2 0.17819777E-01 0.77586565E+03</pdfrwt>
<totfact> 0.43525366E+02</totfact>
</mgrwt>
</event>
<event>
 8      1 +1.6198320e-01 4.24610600e+02 7.81860800e-03 1.03557600e-01
       -1 -1    0    0    0  501 -0.0000000000e+00 +0.0000000000e+00 +8.1255166146e+02 8.1255166148e+02 5.0400000000e-03 0.0000e+00 -1.0000e+00
        1 -1    0    0  501    0 +0.0000000000e+00 -0.0000000000e+00 -5.5471606908e+01 5.5471607137e+01 5.0400000000e-03 0.0000e+00 1.0000e+00
  1000101  2    1    2    0    0 -1.0827271153e+02 -8.3900040793e+01 +1.6746049575e+02 2.4991046377e+02 1.2510006137e+02 5.7102e+01 0.0000e+00
 -1000101  2    1    2    0    0 +1.0827271153e+02 +8.3900040793e+01 +5.8961955881e+02 6.1811280485e+02 1.2510003390e+02 5.6536e+01 0.0000e+00
       11  1    3    3    0    0 -2.0931257026e-01 -1.2783391009e-01 +1.7927289618e-01 3.0379646651e-01 5.1100000000e-04 0.0000e+00 1.0000e+00
      255  1    3    3    0    0 -1.0806339896e+02 -8.3772206883e+01 +1.6728122285e+02 2.4960666730e+02 1.2500000000e+02 0.0000e+00 0.0000e+00
      -11  1    4    4    0    0 +5.8931486614e-02 -9.4304854875e-03 +5.6726934043e-01 5.7040040312e-01 5.1100000000e-04 0.0000e+00 -1.0000e+00
      255  1    4    4    0    0 +1.0821378005e+02 +8.3909471279e+01 +5.8905228947e+02 6.1754240445e+02 1.2500000000e+02 0.0000e+00 0.0000e+00
<mgrwt>
<rscale>  0 0.42461063E+03</rscale>
<asrwt>0</asrwt>
<pdfrwt beam="1">  1        1 0.85340936E-02 0.42461063E+03</pdfrwt>
<pdfrwt beam="2">  1       -1 0.12500795E+00 0.42461063E+03</pdfrwt>
<totfact> 0.47648284E+02</totfact>
</mgrwt>
</event>
<event>
 8      1 +1.6198320e-01 2.70345400e+02 7.81860800e-03 1.10108200e-01
       -1 -1    0    0    0  501 -0.0000000000e+00 +0.0000000000e+00 +1.0052283075e+01 1.0052284338e+01 5.0400000000e-03 0.0000e+00 -1.0000e+00
        1 -1    0    0  501    0 +0.0000000000e+00 -0.0000000000e+00 -1.8176621098e+03 1.8176621098e+03 5.0400000000e-03 0.0000e+00 1.0000e+00
  1000101  2    1    2    0    0 -1.0442966658e+01 +4.0889197107e+01 -1.0998265102e+03 1.1077225956e+03 1.2510001749e+02 1.1451e+02 0.0000e+00
 -1000101  2    1    2    0    0 +1.0442966658e+01 -4.0889197107e+01 -7.0778331655e+02 7.1999179852e+02 1.2509989912e+02 7.6746e+01 0.0000e+00
       11  1    3    3    0    0 -6.5507997139e-02 -4.9497190185e-02 -8.7512466265e-01 8.7896797770e-01 5.1100000000e-04 0.0000e+00 1.0000e+00
      255  1    3    3    0    0 -1.0377458661e+01 +4.0938694297e+01 -1.0989513855e+03 1.1068436277e+03 1.2500000000e+02 0.0000e+00 0.0000e+00
      -11  1    4    4    0    0 -6.8073378112e-02 -1.2523163775e-03 -1.6264026138e-01 1.7631695564e-01 5.1100000000e-04 0.0000e+00 -1.0000e+00
      255  1    4    4    0    0 +1.0511040037e+01 -4.0887944790e+01 -7.0762067629e+02 7.1981548157e+02 1.2500000000e+02 0.0000e+00 0.0000e+00
<mgrwt>
<rscale>  0 0.27034537E+03</rscale>
<asrwt>0</asrwt>
<pdfrwt beam="1">  1        1 0.27964006E+00 0.27034537E+03</pdfrwt>
<pdfrwt beam="2">  1       -1 0.15465066E-02 0.27034537E+03</pdfrwt>
<totfact> 0.44236325E+03</totfact>
</mgrwt>
</event>
<event>
 8      1 +1.6198320e-01 2.91926400e+02 7.81860800e-03 1.08934800e-01
        2 -1    0    0  501    0 +0.0000000000e+00 +0.0000000000e+00 +9.0787266288e+02 9.0787266289e+02 2.5500000000e-03 0.0000e+00 1.0000e+00
       -2 -1    0    0    0  501 -0.0000000000e+00 -0.0000000000e+00 -2.3467223786e+01 2.3467223925e+01 2.5500000000e-03 0.0000e+00 -1.0000e+00
  1000101  2    1    2    0    0 -7.1216358731e+01 -2.4042856365e+01 +4.4967455502e+02 4.7276517763e+02 1.2509947665e+02 5.7170e+01 0.0000e+00
 -1000101  2    1    2    0    0 +7.1216358731e+01 +2.4042856365e+01 +4.3473088408e+02 4.5857470918e+02 1.2509993459e+02 2.1021e+02 0.0000e+00
       11  1    3    3    0    0 -1.6847610601e-01 -4.4725769207e-02 +4.9575564808e-01 5.2550786526e-01 5.1100000000e-04 0.0000e+00 1.0000e+00
      255  1    3    3    0    0 -7.1047882625e+01 -2.3998130596e+01 +4.4917879937e+02 4.7223966976e+02 1.2500000000e+02 0.0000e+00 0.0000e+00
      -11  1    4    4    0    0 -3.4221971758e-02 -4.9576080379e-02 +1.5611477314e-01 1.6733503701e-01 5.1100000000e-04 0.0000e+00 -1.0000e+00
      255  1    4    4    0    0 +7.1250580703e+01 +2.4092432445e+01 +4.3457476931e+02 4.5840737415e+02 1.2500000000e+02 0.0000e+00 0.0000e+00
<mgrwt>
<rscale>  0 0.29192637E+03</rscale>
<asrwt>0</asrwt>
<pdfrwt beam="1">  1        2 0.13967271E+00 0.29192637E+03</pdfrwt>
<pdfrwt beam="2">  1       -2 0.36103423E-02 0.29192637E+03</pdfrwt>
<totfact> 0.96285392E+03</totfact>
</mgrwt>
</event>
<event>
 8      1 +1.6198320e-01 4.11061700e+02 7.81860800e-03 1.04001500e-01
        2 -1    0    0  501    0 +0.0000000000e+00 +0.0000000000e+00 +5.0034404115e+02 5.0034404116e+02 2.5500000000e-03 0.0000e+00 1.0000e+00
       -2 -1    0    0    0  501 -0.0000000000e+00 -0.0000000000e+00 -8.4427753950e+01 8.4427753988e+01 2.5500000000e-03 0.0000e+00 -1.0000e+00
  1000101  2    1    2    0    0 +1.0128223567e+02 +3.0595751504e+01 +3.1426237485e+01 1.6682828566e+02 1.2509946931e+02 1.2987e+02 0.0000e+00
 -1000101  2    1    2    0    0 -1.0128223567e+02 -3.0595751504e+01 +3.8449004971e+02 4.1794350948e+02 1.2509991015e+02 1.3706e+02 0.0000e+00
       11  1    3    3    0    0 -1.8858869067e-02 -2.4575762257e-02 -4.0481920400e-02 5.0977171689e-02 5.1100000000e-04 0.0000e+00 1.0000e+00
      255  1    3    3    0    0 +1.0130109454e+02 +3.0620327266e+01 +3.1466719406e+01 1.6677730849e+02 1.2500000000e+02 0.0000e+00 0.0000e+00
      -11  1    4    4    0    0 -8.7944919424e-03 -9.8665402235e-02 +2.7197872293e-01 2.8945619968e-01 5.1100000000e-04 0.0000e+00 -1.0000e+00
      255  1    4    4    0    0 -1.0127344118e+02 -3.0497086101e+01 +3.8421807099e+02 4.1765405328e+02 1.2500000000e+02 0.0000e+00 0.0000e+00
<mgrwt>
<rscale>  0 0.41106167E+03</rscale>
<asrwt>0</asrwt>
<pdfrwt beam="1">  1        2 0.76976008E-01 0.41106167E+03</pdfrwt>
<pdfrwt beam="2">  1       -2 0.12988885E-01 0.41106167E+03</pdfrwt>
<totfact> 0.27183510E+03</totfact>
</mgrwt>
</event>
<event>
 8      1 +1.6198320e-01 3.66326800e+02 7.81860800e-03 1.05610600e-01
       -2 -1    0    0    0  501 -0.0000000000e+00 +0.0000000000e+00 +1.5073735930e+02 1.5073735932e+02 2.5500000000e-03 0.0000e+00 -1.0000e+00
        2 -1    0    0  501    0 +0.0000000000e+00 -0.0000000000e+00 -2.2256476569e+02 2.2256476570e+02 2.5500000000e-03 0.0000e+00 1.0000e+00
  1000101  2    1    2    0    0 +3.8480528327e+01 +7.4367087882e+01 -1.4224426855e+02 2.0711030138e+02 1.2510008066e+02 1.4945e+02 0.0000e+00
 -1000101  2    1    2    0    0 -3.8480528327e+01 -7.4367087882e+01 +7.0416862160e+01 1.6619182364e+02 1.2509985191e+02 6.8253e+01 0.0000e+00
       11  1    3    3    0    0 -2.0334777435e-02 +1.9614251045e-02 -1.9692113038e-01 1.9893821837e-01 5.1100000000e-04 0.0000e+00 1.0000e+00
      255  1    3    3    0    0 +3.8500863105e+01 +7.4347473631e+01 -1.4204734742e+02 2.0691136316e+02 1.2500000000e+02 0.0000e+00 0.0000e+00
      -11  1    4    4    0    0 -9.2582714045e-02 +1.8039042805e-02 +7.3812105988e-02 1.1977250986e-01 5.1100000000e-04 0.0000e+00 -1.0000e+00
      255  1    4    4    0    0 -3.8387945613e+01 -7.4385126924e+01 +7.0343050054e+01 1.6607205113e+02 1.2500000000e+02 0.0000e+00 0.0000e+00
<mgrwt>
<rscale>  0 0.36632677E+03</rscale>
<asrwt>0</asrwt>
<pdfrwt beam="1">  1        2 0.34240733E-01 0.36632677E+03</pdfrwt>
<pdfrwt beam="2">  1       -2 0.23190363E-01 0.36632677E+03</pdfrwt>
<totfact> 0.24730738E+03</totfact>
</mgrwt>
</event>
<event>
 8      1 +1.6198320e-01 2.91939300e+02 7.81860800e-03 1.08934100e-01
        1 -1    0    0  501    0 +0.0000000000e+00 +0.0000000000e+00 +1.5348609590e+02 1.5348609598e+02 5.0400000000e-03 0.0000e+00 1.0000e+00
       -1 -1    0    0    0  501 -0.0000000000e+00 -0.0000000000e+00 -1.3882129050e+02 1.3882129059e+02 5.0400000000e-03 0.0000e+00 -1.0000e+00
  1000101  2    1    2    0    0 +8.1095483842e+00 +6.7102293835e+01 -2.5703768187e+01 1.4449631346e+02 1.2510003314e+02 1.0149e+02 0.0000e+00
 -1000101  2    1    2    0    0 -8.1095483842e+00 -6.7102293835e+01 +4.0368573594e+01 1.4781107311e+02 1.2509999595e+02 2.0067e+00 0.0000e+00
       11  1    3    3    0    0 -6.0467742380e-02 +8.1338550140e-02 +4.8437684804e-02 1.1233333449e-01 5.1100000000e-04 0.0000e+00 1.0000e+00
      255  1    3    3    0    0 +8.1700161266e+00 +6.7020955285e+01 -2.5752205872e+01 1.4438398013e+02 1.2500000000e+02 0.0000e+00 0.0000e+00
      -11  1    4    4    0    0 +5.6387914130e-02 -1.6952150798e-03 -4.2538678760e-02 7.0656004175e-02 5.1100000000e-04 0.0000e+00 -1.0000e+00
      255  1    4    4    0    0 -8.1659362983e+00 -6.7100598620e+01 +4.0411112272e+01 1.4774041710e+02 1.2500000000e+02 0.0000e+00 0.0000e+00
<mgrwt>
<rscale>  0 0.29193929E+03</rscale>
<asrwt>0</asrwt>
<pdfrwt beam="1">  1        1 0.23613245E-01 0.29193929E+03</pdfrwt>
<pdfrwt beam="2">  1       -1 0.21357122E-01 0.29193929E+03</pdfrwt>
<totfact> 0.37148971E+03</totfact>
</mgrwt>
</event>
<event>
 8      1 +1.6198320e-01 2.70002700e+02 7.81860800e-03 1.10127800e-01
        2 -1    0    0  501    0 +0.0000000000e+00 +0.0000000000e+00 +5.7156673605e+02 5.7156673605e+02 2.5500000000e-03 0.0000e+00 1.0000e+00
       -2 -1    0    0    0  501 -0.0000000000e+00 -0.0000000000e+00 -3.1886685163e+01 3.1886685265e+01 2.5500000000e-03 0.0000e+00 -1.0000e+00
  1000101  2    1    2    0    0 +3.9871463777e+01 +2.5991970753e+01 +2.3049225992e+02 2.6653707559e+02 1.2510001844e+02 2.0879e+01 0.0000e+00
 -1000101  2    1    2    0    0 -3.9871463777e+01 -2.5991970753e+01 +3.0918779097e+02 3.3691634573e+02 1.2510083041e+02 1.8277e+01 0.0000e+00
       11  1    3    3    0    0 +7.6004885187e-02 +4.3337327427e-02 +3.9077459783e-01 4.0044963972e-01 5.1100000000e-04 0.0000e+00 1.0000e+00
      255  1    3    3    0    0 +3.9795458892e+01 +2.5948633425e+01 +2.3010148532e+02 2.6613662595e+02 1.2500000000e+02 0.0000e+00 0.0000e+00
      -11  1    4    4    0    0 -4.3883874330e-02 +7.2894867590e-02 +1.1986740908e-01 1.4699630277e-01 5.1100000000e-04 0.0000e+00 -1.0000e+00
      255  1    4    4    0    0 -3.9827579903e+01 -2.6064865620e+01 +3.0906792356e+02 3.3676934943e+02 1.2500000000e+02 0.0000e+00 0.0000e+00
<mgrwt>
<rscale>  0 0.27000273E+03</rscale>
<asrwt>0</asrwt>
<pdfrwt beam="1">  1        2 0.87933340E-01 0.27000273E+03</pdfrwt>
<pdfrwt beam="2">  1       -2 0.49056441E-02 0.27000273E+03</pdfrwt>
<totfact> 0.10699667E+04</totfact>
</mgrwt>
</event>
<event>
 8      1 +1.6198320e-01 4.39522300e+02 7.81860800e-03 1.03089300e-01
        2 -1    0    0  501    0 +0.0000000000e+00 +0.0000000000e+00 +1.8567649629e+03 1.8567649629e+03 2.5500000000e-03 0.0000e+00 1.0000e+00
       -2 -1    0    0    0  501 -0.0000000000e+00 -0.0000000000e+00 -2.6010267667e+01 2.6010267792e+01 2.5500000000e-03 0.0000e+00 -1.0000e+00
  1000101  2    1    2    0    0 -8.7011520888e+01 -1.5360315397e+02 +7.5057871500e+02 7.8114232540e+02 1.2509992584e+02 1.1902e+02 0.0000e+00
 -1000101  2    1    2    0    0 +8.7011520888e+01 +1.5360315397e+02 +1.0801759802e+03 1.1016329053e+03 1.2509986441e+02 5.1705e+01 0.0000e+00
       11  1    3    3    0    0 -1.5519054579e-01 -1.2933642438e-01 +9.6717990840e-01 9.8805326400e-01 5.1100000000e-04 0.0000e+00 1.0000e+00
      255  1    3    3    0    0 -8.6856330342e+01 -1.5347381754e+02 +7.4961153509e+02 7.8015427214e+02 1.2500000000e+02 0.0000e+00 0.0000e+00
      -11  1    4    4    0    0 +9.2066219524e-02 +2.6899432347e-01 +1.2829682905e+00 1.3140936155e+00 5.1100000000e-04 0.0000e+00 -1.0000e+00
      255  1    4    4    0    0 +8.6919454668e+01 +1.5333415964e+02 +1.0788930119e+03 1.1003188117e+03 1.2500000000e+02 0.0000e+00 0.0000e+00
<mgrwt>
<rscale>  0 0.43952226E+03</rscale>
<asrwt>0</asrwt>
<pdfrwt beam="1">  1        2 0.28565614E+00 0.43952226E+03</pdfrwt>
<pdfrwt beam="2">  1       -2 0.40015798E-02 0.43952226E+03</pdfrwt>
<totfact> 0.24110433E+03</totfact>
</mgrwt>
</event>
<event>
 8      1 +1.6198320e-01 3.50313100e+02 7.81860800e-03 1.06248700e-01
        2 -1    0    0  501    0 +0.0000000000e+00 +0.0000000000e+00 +3.5576425107e+02 3.5576425108e+02 2.5500000000e-03 0.0000e+00 1.0000e+00
       -2 -1    0    0    0  501 -0.0000000000e+00 -0.0000000000e+00 -8.6236379653e+01 8.6236379691e+01 2.5500000000e-03 0.0000e+00 -1.0000e+00
  1000101  2    1    2    0    0 +9.4338872377e+01 -7.5979854153e+01 +1.1092232149e+02 2.0646192376e+02 1.2509997394e+02 8.7068e+01 0.0000e+00
 -1000101  2    1    2    0    0 -9.4338872377e+01 +7.5979854153e+01 +1.5860554992e+02 2.3553870701e+02 1.2509996384e+02 6.8842e+01 0.0000e+00
       11  1    3    3    0    0 +1.0503612578e-01 -1.6171869719e-01 +6.7420769244e-02 2.0428251513e-01 5.1100000000e-04 0.0000e+00 1.0000e+00
      255  1    3    3    0    0 +9.4233836251e+01 -7.5818135456e+01 +1.1085490072e+02 2.0625764125e+02 1.2500000000e+02 0.0000e+00 0.0000e+00
      -11  1    4    4    0    0 -1.9094699318e-01 +5.6859873799e-02 +2.0652369148e-01 2.8696009429e-01 5.1100000000e-04 0.0000e+00 -1.0000e+00
      255  1    4    4    0    0 -9.4147925383e+01 +7.5922994279e+01 +1.5839902623e+02 2.3525174691e+02 1.2500000000e+02 0.0000e+00 0.0000e+00
<mgrwt>
<rscale>  0 0.35031312E+03</rscale>
<asrwt>0</asrwt>
<pdfrwt beam="1">  1        2 0.54732960E-01 0.35031312E+03</pdfrwt>
<pdfrwt beam="2">  1       -2 0.13267136E-01 0.35031312E+03</pdfrwt>
<totfact> 0.38215089E+03</totfact>
</mgrwt>
</event>
<event>
 8      1 +1.6198320e-01 2.72759600e+02 7.81860800e-03 1.09971100e-01
        1 -1    0    0  501    0 +0.0000000000e+00 +0.0000000000e+00 +7.4126840235e+02 7.4126840237e+02 5.0400000000e-03 0.0000e+00 -1.0000e+00
       -1 -1    0    0    0  501 -0.0000000000e+00 -0.0000000000e+00 -2.5091381771e+01 2.5091382277e+01 5.0400000000e-03 0.0000e+00 1.0000e+00
  1000101  2    1    2    0    0 -3.3791989360e+01 +3.2739828605e+01 +4.3429528804e+02 4.5439650751e+02 1.2509993569e+02 6.7835e+01 0.0000e+00
 -1000101  2    1    2    0    0 +3.3791989360e+01 -3.2739828605e+01 +2.8188173254e+02 3.1196327713e+02 1.2509988095e+02 1.9881e+01 0.0000e+00
       11  1    3    3    0    0 -3.0018658343e-03 +1.4544502379e-03 +6.2891200012e-01 6.2892105358e-01 5.1100000000e-04 0.0000e+00 1.0000e+00
      255  1    3    3    0    0 -3.3788987494e+01 +3.2738374155e+01 +4.3366637604e+02 4.5376758646e+02 1.2500000000e+02 0.0000e+00 0.0000e+00
      -11  1    4    4    0    0 +2.6609025817e-02 -7.8122440953e-02 +4.5275319861e-01 4.6021394591e-01 5.1100000000e-04 0.0000e+00 -1.0000e+00
      255  1    4    4    0    0 +3.3765380334e+01 -3.2661706165e+01 +2.8142897935e+02 3.1150306319e+02 1.2500000000e+02 0.0000e+00 0.0000e+00
<mgrwt>
<rscale>  0 0.27275959E+03</rscale>
<asrwt>0</asrwt>
<pdfrwt beam="1">  1        1 0.11404131E+00 0.27275959E+03</pdfrwt>
<pdfrwt beam="2">  1       -1 0.38602121E-02 0.27275959E+03</pdfrwt>
<totfact> 0.66952971E+03</totfact>
</mgrwt>
</event>
<event>
 8      1 +1.6198320e-01 3.88950800e+02 7.81860800e-03 1.04767400e-01
        3 -1    0    0  501    0 +0.0000000000e+00 +0.0000000000e+00 +1.0654224176e+02 1.0654228964e+02 1.0100000000e-01 0.0000e+00 1.0000e+00
       -3 -1    0    0    0  501 -0.0000000000e+00 -0.0000000000e+00 -3.5498279806e+02 3.5498281243e+02 1.0100000000e-01 0.0000e+00 -1.0000e+00
  1000101  2    1    2    0    0 +3.9165952416e+01 +1.1895035588e+02 -2.8646469024e+01 1.7931487150e+02 1.2510013574e+02 1.9872e+02 0.0000e+00
 -1000101  2    1    2    0    0 -3.9165952416e+01 -1.1895035588e+02 -2.1979408728e+02 2.8221023057e+02 1.2510001776e+02 5.1750e+00 0.0000e+00
       11  1    3    3    0    0 +6.8105636467e-02 +1.8123841379e-01 +4.2291320170e-02 1.9817809474e-01 5.1100000000e-04 0.0000e+00 1.0000e+00
      255  1    3    3    0    0 +3.9097846780e+01 +1.1876911747e+02 -2.8688760344e+01 1.7911669341e+02 1.2500000000e+02 0.0000e+00 0.0000e+00
      -11  1    4    4    0    0 -1.3054276539e-01 -7.9597925956e-02 -2.0021558245e-01 2.5192019369e-01 5.1100000000e-04 0.0000e+00 -1.0000e+00
      255  1    4    4    0    0 -3.9035409651e+01 -1.1887075795e+02 -2.1959387169e+02 2.8195831037e+02 1.2500000000e+02 0.0000e+00 0.0000e+00
<mgrwt>
<rscale>  0 0.38895078E+03</rscale>
<asrwt>0</asrwt>
<pdfrwt beam="1">  1        3 0.16391119E-01 0.38895078E+03</pdfrwt>
<pdfrwt beam="2">  1       -3 0.54612742E-01 0.38895078E+03</pdfrwt>
<totfact> 0.27667439E+02</totfact>
</mgrwt>
</event>
<event>
 8      1 +1.6198320e-01 4.12352000e+02 7.81860800e-03 1.03958500e-01
       -2 -1    0    0    0  501 -0.0000000000e+00 +0.0000000000e+00 +8.6945775279e+01 8.6945775317e+01 2.5500000000e-03 0.0000e+00 -1.0000e+00
        2 -1    0    0  501    0 +0.0000000000e+00 -0.0000000000e+00 -4.8890866207e+02 4.8890866208e+02 2.5500000000e-03 0.0000e+00 1.0000e+00
  1000101  2    1    2    0    0 -1.0254286932e+02 +6.2624124085e+01 -3.5662651682e+02 3.9657197557e+02 1.2510011328e+02 6.1151e+01 0.0000e+00
 -1000101  2    1    2    0    0 +1.0254286932e+02 -6.2624124085e+01 -4.5336369971e+01 1.7928246182e+02 1.2509993489e+02 8.5035e+01 0.0000e+00
       11  1    3    3    0    0 +1.3660612149e-02 +4.2791975984e-02 -3.1364978789e-01 3.1685046331e-01 5.1100000000e-04 0.0000e+00 1.0000e+00
      255  1    3    3    0    0 -1.0255652993e+02 +6.2581332109e+01 -3.5631286703e+02 3.9625512510e+02 1.2500000000e+02 0.0000e+00 0.0000e+00
      -11  1    4    4    0    0 +1.7705697085e-01 -6.8622878558e-02 -1.2231759524e-01 2.2587635028e-01 5.1100000000e-04 0.0000e+00 -1.0000e+00
      255  1    4    4    0    0 +1.0236581235e+02 -6.2555501206e+01 -4.5214052376e+01 1.7905658547e+02 1.2500000000e+02 0.0000e+00 0.0000e+00
<mgrwt>
<rscale>  0 0.41235200E+03</rscale>
<asrwt>0</asrwt>
<pdfrwt beam="1">  1        2 0.75216716E-01 0.41235200E+03</pdfrwt>
<pdfrwt beam="2">  1       -2 0.13376273E-01 0.41235200E+03</pdfrwt>
<totfact> 0.26588315E+03</totfact>
</mgrwt>
</event>
<event>
 8      1 +1.6198320e-01 2.95387900e+02 7.81860800e-03 1.08756900e-01
       -2 -1    0    0    0  501 -0.0000000000e+00 +0.0000000000e+00 +2.1704796801e+01 2.1704796951e+01 2.5500000000e-03 0.0000e+00 -1.0000e+00
        2 -1    0    0  501    0 +0.0000000000e+00 -0.0000000000e+00 -1.0050081389e+03 1.0050081389e+03 2.5500000000e-03 0.0000e+00 1.0000e+00
  1000101  2    1    2    0    0 +3.4540091421e+01 +7.0309432891e+01 -5.0972389307e+02 5.3066460701e+02 1.2510013470e+02 1.9291e+02 0.0000e+00
 -1000101  2    1    2    0    0 -3.4540091421e+01 -7.0309432891e+01 -4.7357944902e+02 4.9604832883e+02 1.2510002292e+02 1.9959e+02 0.0000e+00
       11  1    3    3    0    0 -4.7298558510e-02 -2.4754668310e-02 -3.2718308047e-01 3.3151014541e-01 5.1100000000e-04 0.0000e+00 1.0000e+00
      255  1    3    3    0    0 +3.4587389980e+01 +7.0334187559e+01 -5.0939670999e+02 5.3033309687e+02 1.2500000000e+02 0.0000e+00 0.0000e+00
      -11  1    4    4    0    0 -8.9972360052e-02 +2.5378497883e-02 -2.7903078564e-01 2.9427458977e-01 5.1100000000e-04 0.0000e+00 -1.0000e+00
      255  1    4    4    0    0 -3.4450119061e+01 -7.0334811389e+01 -4.7330041823e+02 4.9575405424e+02 1.2500000000e+02 0.0000e+00 0.0000e+00
<mgrwt>
<rscale>  0 0.29538786E+03</rscale>
<asrwt>0</asrwt>
<pdfrwt beam="1">  1        2 0.15461660E+00 0.29538786E+03</pdfrwt>
<pdfrwt beam="2">  1       -2 0.33392003E-02 0.29538786E+03</pdfrwt>
<totfact> 0.94080878E+03</totfact>
</mgrwt>
</event>
<event>
 8      1 +1.6198320e-01 4.60128400e+02 7.81860800e-03 1.02474400e-01
       -1 -1    0    0    0  501 -0.0000000000e+00 +0.0000000000e+00 +5.5249569725e+01 5.5249569955e+01 5.0400000000e-03 0.0000e+00 -1.0000e+00
        1 -1    0    0  501    0 +0.0000000000e+00 -0.0000000000e+00 -9.5800817941e+02 9.5800817942e+02 5.0400000000e-03 0.0000e+00 1.0000e+00
  1000101  2    1    2    0    0 +1.0962329385e+01 -8.0673296639e+01 -6.5843803502e+01 1.6313730368e+02 1.2510003971e+02 2.6917e+02 0.0000e+00
 -1000101  2    1    2    0    0 -1.0962329385e+01 +8.0673296639e+01 -8.3691480618e+02 8.5012044570e+02 1.2510006368e+02 7.6846e+01 0.0000e+00
       11  1    3    3    0    0 -1.9255600326e-02 +5.1116069249e-02 -1.9784607390e-02 5.8097525683e-02 5.1100000000e-04 0.0000e+00 1.0000e+00
      255  1    3    3    0    0 +1.0981584986e+01 -8.0724412709e+01 -6.5824018895e+01 1.6307920615e+02 1.2500000000e+02 0.0000e+00 0.0000e+00
      -11  1    4    4    0    0 -4.2855201669e-02 -2.8094711937e-02 -6.8897112238e-01 6.9087433716e-01 5.1100000000e-04 0.0000e+00 -1.0000e+00
      255  1    4    4    0    0 -1.0919474184e+01 +8.0701391351e+01 -8.3622583506e+02 8.4942957136e+02 1.2500000000e+02 0.0000e+00 0.0000e+00
<mgrwt>
<rscale>  0 0.46012842E+03</rscale>
<asrwt>0</asrwt>
<pdfrwt beam="1">  1        1 0.14738586E+00 0.46012842E+03</pdfrwt>
<pdfrwt beam="2">  1       -1 0.84999345E-02 0.46012842E+03</pdfrwt>
<totfact> 0.13471791E+03</totfact>
</mgrwt>
</event>
<event>
 8      1 +1.6198320e-01 3.04362500e+02 7.81860800e-03 1.08308000e-01
        2 -1    0    0  501    0 +0.0000000000e+00 +0.0000000000e+00 +7.1239658129e+02 7.1239658129e+02 2.5500000000e-03 0.0000e+00 1.0000e+00
       -2 -1    0    0    0  501 -0.0000000000e+00 -0.0000000000e+00 -3.2508771493e+01 3.2508771593e+01 2.5500000000e-03 0.0000e+00 -1.0000e+00
  1000101  2    1    2    0    0 +1.2951772615e+01 -5.4632501002e+01 +1.7840105242e+02 2.2500975349e+02 1.2509994037e+02 1.4452e+02 0.0000e+00
 -1000101  2    1    2    0    0 -1.2951772615e+01 +5.4632501002e+01 +5.0148675737e+02 5.1989559940e+02 1.2509999150e+02 1.2727e+02 0.0000e+00
       11  1    3    3    0    0 +1.0461696850e-01 -8.4858415152e-02 +1.8498392145e-01 2.2883394205e-01 5.1100000000e-04 0.0000e+00 1.0000e+00
      255  1    3    3    0    0 +1.2847155647e+01 -5.4547642586e+01 +1.7821606850e+02 2.2478091955e+02 1.2500000000e+02 0.0000e+00 0.0000e+00
      -11  1    4    4    0    0 -8.8487783600e-03 -6.4932503170e-02 +2.0770895374e-01 2.1780220713e-01 5.1100000000e-04 0.0000e+00 -1.0000e+00
      255  1    4    4    0    0 -1.2942923837e+01 +5.4697433505e+01 +5.0127904842e+02 5.1967779719e+02 1.2500000000e+02 0.0000e+00 0.0000e+00
<mgrwt>
<rscale>  0 0.30436253E+03</rscale>
<asrwt>0</asrwt>
<pdfrwt beam="1">  1        2 0.10959948E+00 0.30436253E+03</pdfrwt>
<pdfrwt beam="2">  1       -2 0.50013494E-02 0.30436253E+03</pdfrwt>
<totfact> 0.80371702E+03</totfact>
</mgrwt>
</event>
<event>
 8      1 +1.6198320e-01 2.98190900e+02 7.81860800e-03 1.08614800e-01
        2 -1    0    0  501    0 +0.0000000000e+00 +0.0000000000e+00 +4.7244302897e+02 4.7244302897e+02 2.5500000000e-03 0.0000e+00 1.0000e+00
       -2 -1    0    0    0  501 -0.0000000000e+00 -0.0000000000e+00 -4.7052133314e+01 4.7052133383e+01 2.5500000000e-03 0.0000e+00 -1.0000e+00
  1000101  2    1    2    0    0 +7.8911057649e+01 -1.5786580997e+01 +1.9498737319e+02 2.4524714062e+02 1.2509961279e+02 6.5575e+01 0.0000e+00
 -1000101  2    1    2    0    0 -7.8911057649e+01 +1.5786580997e+01 +2.3040352246e+02 2.7424802174e+02 1.2510005237e+02 4.1709e+02 0.0000e+00
       11  1    3    3    0    0 -2.4643120358e-02 -7.0289403797e-02 +1.4129274234e-01 1.5972408656e-01 5.1100000000e-04 0.0000e+00 1.0000e+00
      255  1    3    3    0    0 +7.8935700770e+01 -1.5716291593e+01 +1.9484608045e+02 2.4508741653e+02 1.2500000000e+02 0.0000e+00 0.0000e+00
      -11  1    4    4    0    0 -1.5339116085e-01 -4.1103291884e-02 +1.9934242988e-01 2.5486465880e-01 5.1100000000e-04 0.0000e+00 -1.0000e+00
      255  1    4    4    0    0 -7.8757666488e+01 +1.5827684289e+01 +2.3020418003e+02 2.7399315708e+02 1.2500000000e+02 0.0000e+00 0.0000e+00
<mgrwt>
<rscale>  0 0.29819089E+03</rscale>
<asrwt>0</asrwt>
<pdfrwt beam="1">  1        2 0.72683546E-01 0.29819089E+03</pdfrwt>
<pdfrwt beam="2">  1       -2 0.72387895E-02 0.29819089E+03</pdfrwt>
<totfact> 0.73244301E+03</totfact>
</mgrwt>
</event>
<event>
 8      1 +1.6198320e-01 4.22997400e+02 7.81860800e-03 1.03609500e-01
        2 -1    0    0  501    0 +0.0000000000e+00 +0.0000000000e+00 +2.6943630768e+02 2.6943630769e+02 2.5500000000e-03 0.0000e+00 1.0000e+00
       -2 -1    0    0    0  501 -0.0000000000e+00 -0.0000000000e+00 -1.6601960164e+02 1.6601960166e+02 2.5500000000e-03 0.0000e+00 -1.0000e+00
  1000101  2    1    2    0    0 +5.4590575778e+01 -8.0582170931e+01 -9.2444809721e+01 1.8349293784e+02 1.2509995267e+02 8.5405e+00 0.0000e+00
 -1000101  2    1    2    0    0 -5.4590575778e+01 +8.0582170931e+01 +1.9586151576e+02 2.5196297151e+02 1.2509991376e+02 8.0508e+01 0.0000e+00
       11  1    3    3    0    0 +1.1661632621e-01 -8.9414860378e-03 -1.1821431386e-01 1.6629552860e-01 5.1100000000e-04 0.0000e+00 1.0000e+00
      255  1    3    3    0    0 +5.4473959452e+01 -8.0573229445e+01 -9.2326595407e+01 1.8332664231e+02 1.2500000000e+02 0.0000e+00 0.0000e+00
      -11  1    4    4    0    0 -1.2982869078e-01 +6.4145699565e-02 +1.0008934208e-01 1.7603493188e-01 5.1100000000e-04 0.0000e+00 -1.0000e+00
      255  1    4    4    0    0 -5.4460747088e+01 +8.0518025231e+01 +1.9576142642e+02 2.5178693658e+02 1.2500000000e+02 0.0000e+00 0.0000e+00
<mgrwt>
<rscale>  0 0.42299744E+03</rscale>
<asrwt>0</asrwt>
<pdfrwt beam="1">  1        2 0.41451739E-01 0.42299744E+03</pdfrwt>
<pdfrwt beam="2">  1       -2 0.25541478E-01 0.42299744E+03</pdfrwt>
<totfact> 0.16935709E+03</totfact>
</mgrwt>
</event>
<event>
 8      1 +1.6198320e-01 3.09638900e+02 7.81860800e-03 1.08051900e-01
        2 -1    0    0  501    0 +0.0000000000e+00 +0.0000000000e+00 +9.0157120363e+02 9.0157120364e+02 2.5500000000e-03 0.0000e+00 1.0000e+00
       -2 -1    0    0    0  501 -0.0000000000e+00 -0.0000000000e+00 -2.6585869763e+01 2.6585869885e+01 2.5500000000e-03 0.0000e+00 -1.0000e+00
  1000101  2    1    2    0    0 -2.5025104382e+01 -7.3877284809e+01 +5.7920218581e+02 5.9766987001e+02 1.2509992970e+02 1.3370e+01 0.0000e+00
 -1000101  2    1    2    0    0 +2.5025104382e+01 +7.3877284809e+01 +2.9578314806e+02 3.3048720351e+02 1.2510000779e+02 5.7940e+01 0.0000e+00
       11  1    3    3    0    0 -7.3678996199e-02 +3.1198339652e-02 +2.5507954548e-01 2.6733455916e-01 5.1100000000e-04 0.0000e+00 1.0000e+00
      255  1    3    3    0    0 -2.4951425386e+01 -7.3908483149e+01 +5.7894710626e+02 5.9740253545e+02 1.2500000000e+02 0.0000e+00 0.0000e+00
      -11  1    4    4    0    0 -7.9907181868e-02 +2.7339969702e-02 +1.9129571411e-01 2.0910988264e-01 5.1100000000e-04 0.0000e+00 -1.0000e+00
      255  1    4    4    0    0 +2.5105011564e+01 +7.3849944840e+01 +2.9559185234e+02 3.3027809363e+02 1.2500000000e+02 0.0000e+00 0.0000e+00
<mgrwt>
<rscale>  0 0.30963885E+03</rscale>
<asrwt>0</asrwt>
<pdfrwt beam="1">  1        2 0.13870326E+00 0.30963885E+03</pdfrwt>
<pdfrwt beam="2">  1       -2 0.40901340E-02 0.30963885E+03</pdfrwt>
<totfact> 0.80670868E+03</totfact>
</mgrwt>
</event>
<event>
 8      1 +1.6198320e-01 3.95407200e+02 7.81860800e-03 1.04538200e-01
       -2 -1    0    0    0  501 -0.0000000000e+00 +0.0000000000e+00 +4.8037489333e+01 4.8037489401e+01 2.5500000000e-03 0.0000e+00 -1.0000e+00
        2 -1    0    0  501    0 +0.0000000000e+00 -0.0000000000e+00 -8.1367092741e+02 8.1367092742e+02 2.5500000000e-03 0.0000e+00 1.0000e+00
  1000101  2    1    2    0    0 -7.9952338005e+01 +1.2583353664e+02 -4.5863171458e+02 4.9821629110e+02 1.2509983135e+02 1.0569e+02 0.0000e+00
 -1000101  2    1    2    0    0 +7.9952338005e+01 -1.2583353664e+02 -3.0700172350e+02 3.6349212572e+02 1.2510000771e+02 1.7285e+02 0.0000e+00
       11  1    3    3    0    0 -1.6314248590e-01 +1.2694360186e-01 -3.6845784609e-01 4.2248265553e-01 5.1100000000e-04 0.0000e+00 1.0000e+00
      255  1    3    3    0    0 -7.9789195519e+01 +1.2570659304e+02 -4.5826325673e+02 4.9779380845e+02 1.2500000000e+02 0.0000e+00 0.0000e+00
      -11  1    4    4    0    0 -5.3706580354e-02 -4.2491394508e-02 -8.6013185899e-02 1.0994746314e-01 5.1100000000e-04 0.0000e+00 -1.0000e+00
      255  1    4    4    0    0 +8.0006044585e+01 -1.2579104525e+02 -3.0691571032e+02 3.6338217825e+02 1.2500000000e+02 0.0000e+00 0.0000e+00
<mgrwt>
<rscale>  0 0.39540718E+03</rscale>
<asrwt>0</asrwt>
<pdfrwt beam="1">  1        2 0.12518013E+00 0.39540718E+03</pdfrwt>
<pdfrwt beam="2">  1       -2 0.73903836E-02 0.39540718E+03</pdfrwt>
<totfact> 0.37350073E+03</totfact>
</mgrwt>
</event>
<event>
 8      1 +1.6198320e-01 4.85688300e+02 7.81860800e-03 1.01758300e-01
       -2 -1    0    0    0  501 -0.0000000000e+00 +0.0000000000e+00 +7.4297214942e+02 7.4297214942e+02 2.5500000000e-03 0.0000e+00 -1.0000e+00
        2 -1    0    0  501    0 +0.0000000000e+00 -0.0000000000e+00 -7.9374824986e+01 7.9374825027e+01 2.5500000000e-03 0.0000e+00 1.0000e+00
  1000101  2    1    2    0    0 +6.6476349455e+01 -1.5632337575e+01 -1.1116477161e+00 1.4252972076e+02 1.2510000209e+02 5.4099e+01 0.0000e+00
 -1000101  2    1    2    0    0 -6.6476349455e+01 +1.5632337575e+01 +6.6470897215e+02 6.7981725370e+02 1.2509998302e+02 1.1589e+01 0.0000e+00
       11  1    3    3    0    0 +9.8218384115e-02 +6.2835237962e-02 +4.8483388226e-02 1.2627754418e-01 5.1100000000e-04 0.0000e+00 1.0000e+00
      255  1    3    3    0    0 +6.6378131071e+01 -1.5695172813e+01 -1.1601311043e+00 1.4240344321e+02 1.2500000000e+02 0.0000e+00 0.0000e+00
      -11  1    4    4    0    0 -6.2887787605e-02 +6.4249306841e-02 +1.7074505373e-01 1.9296886214e-01 5.1100000000e-04 0.0000e+00 -1.0000e+00
      255  1    4    4    0    0 -6.6413461668e+01 +1.5568088268e+01 +6.6453822710e+02 6.7962428483e+02 1.2500000000e+02 0.0000e+00 0.0000e+00
<mgrwt>
<rscale>  0 0.48568831E+03</rscale>
<asrwt>0</asrwt>
<pdfrwt beam="1">  1        2 0.12211511E-01 0.48568831E+03</pdfrwt>
<pdfrwt beam="2">  1       -2 0.11430341E+00 0.48568831E+03</pdfrwt>
<totfact> 0.31309971E+02</totfact>
</mgrwt>
</event>
<event>
 8      1 +1.6198320e-01 3.17457100e+02 7.81860800e-03 1.07682600e-01
       -3 -1    0    0    0  501 -0.0000000000e+00 +0.0000000000e+00 +1.0173438266e+02 1.0173443280e+02 1.0100000000e-01 0.0000e+00 1.0000e+00
        3 -1    0    0  501    0 +0.0000000000e+00 -0.0000000000e+00 -2.4765223392e+02 2.4765225452e+02 1.0100000000e-01 0.0000e+00 -1.0000e+00
  1000101  2    1    2    0    0 -4.0587628172e-01 +9.0571434583e+01 -3.2648937203e+01 1.5785847373e+02 1.2509994056e+02 4.8162e+01 0.0000e+00
 -1000101  2    1    2    0    0 +4.0587628172e-01 -9.0571434583e+01 -1.1326891406e+02 1.9152821359e+02 1.2509940132e+02 3.0690e+01 0.0000e+00
       11  1    3    3    0    0 +8.2811735092e-03 +2.2062370893e-02 +7.2997594828e-02 7.6708774050e-02 5.1100000000e-04 0.0000e+00 1.0000e+00
      255  1    3    3    0    0 -4.1415745523e-01 +9.0549372212e+01 -3.2721934797e+01 1.5778176495e+02 1.2500000000e+02 0.0000e+00 0.0000e+00
      -11  1    4    4    0    0 -4.0550058887e-02 -1.0559337779e-01 -2.1143204070e-01 2.3978748438e-01 5.1100000000e-04 0.0000e+00 -1.0000e+00
      255  1    4    4    0    0 +4.4642634061e-01 -9.0465841205e+01 -1.1305748202e+02 1.9128842611e+02 1.2500000000e+02 0.0000e+00 0.0000e+00
<mgrwt>
<rscale>  0 0.31745714E+03</rscale>
<asrwt>0</asrwt>
<pdfrwt beam="1">  1        3 0.38100349E-01 0.31745714E+03</pdfrwt>
<pdfrwt beam="2">  1       -3 0.15651449E-01 0.31745714E+03</pdfrwt>
<totfact> 0.60600202E+02</totfact>
</mgrwt>
</event>
<event>
 8      1 +1.6198320e-01 2.62824400e+02 7.81860800e-03 1.10545800e-01
        2 -1    0    0  501    0 +0.0000000000e+00 +0.0000000000e+00 +9.9727233691e+02 9.9727233691e+02 2.5500000000e-03 0.0000e+00 1.0000e+00
       -2 -1    0    0    0  501 -0.0000000000e+00 -0.0000000000e+00 -1.7316397373e+01 1.7316397561e+01 2.5500000000e-03 0.0000e+00 -1.0000e+00
  1000101  2    1    2    0    0 -1.6123170505e+01 +3.5227980559e+01 +4.4801365488e+02 4.6676247087e+02 1.2509996806e+02 4.0581e+01 0.0000e+00
 -1000101  2    1    2    0    0 +1.6123170505e+01 -3.5227980559e+01 +5.3194228466e+02 5.4782626361e+02 1.2510017447e+02 2.9328e+00 0.0000e+00
       11  1    3    3    0    0 +4.6137630112e-02 +1.0757372103e-01 +3.3558823142e-01 3.5541596554e-01 5.1100000000e-04 0.0000e+00 1.0000e+00
      255  1    3    3    0    0 -1.6169308135e+01 +3.5120406838e+01 +4.4767806665e+02 4.6640705490e+02 1.2500000000e+02 0.0000e+00 0.0000e+00
      -11  1    4    4    0    0 +9.6311063840e-02 -4.5545272920e-02 +2.5762490510e-01 2.7878494535e-01 5.1100000000e-04 0.0000e+00 -1.0000e+00
      255  1    4    4    0    0 +1.6026859441e+01 -3.5182435286e+01 +5.3168465975e+02 5.4754747866e+02 1.2500000000e+02 0.0000e+00 0.0000e+00
<mgrwt>
<rscale>  0 0.26282438E+03</rscale>
<asrwt>0</asrwt>
<pdfrwt beam="1">  1        2 0.15342661E+00 0.26282438E+03</pdfrwt>
<pdfrwt beam="2">  1       -2 0.26640594E-02 0.26282438E+03</pdfrwt>
<totfact> 0.13266163E+04</totfact>
</mgrwt>
</event>
<event>
 8      1 +1.6198320e-01 2.82995400e+02 7.81860800e-03 1.09406400e-01
       -2 -1    0    0    0  501 -0.0000000000e+00 +0.0000000000e+00 +2.8206863049e+01 2.8206863164e+01 2.5500000000e-03 0.0000e+00 -1.0000e+00
        2 -1    0    0  501    0 +0.0000000000e+00 -0.0000000000e+00 -7.0981302481e+02 7.0981302482e+02 2.5500000000e-03 0.0000e+00 1.0000e+00
  1000101  2    1    2    0    0 -5.4269376351e+01 +2.0307999881e+01 -4.2384735745e+02 4.4570637444e+02 1.2509999891e+02 2.7239e+02 0.0000e+00
 -1000101  2    1    2    0    0 +5.4269376351e+01 -2.0307999881e+01 -2.5775880432e+02 2.9231351355e+02 1.2509999572e+02 1.8441e+02 0.0000e+00
       11  1    3    3    0    0 +3.9470053094e-02 -5.3880920380e-02 -2.3137415685e-01 2.4082213406e-01 5.1100000000e-04 0.0000e+00 1.0000e+00
      255  1    3    3    0    0 -5.4308846404e+01 +2.0361880801e+01 -4.2361598329e+02 4.4546555230e+02 1.2500000000e+02 0.0000e+00 0.0000e+00
      -11  1    4    4    0    0 +4.5662482219e-02 +2.7052259515e-02 -4.4042329799e-03 5.3259228469e-02 5.1100000000e-04 0.0000e+00 -1.0000e+00
      255  1    4    4    0    0 +5.4223713869e+01 -2.0335052140e+01 -2.5775440008e+02 2.9226025432e+02 1.2500000000e+02 0.0000e+00 0.0000e+00
<mgrwt>
<rscale>  0 0.28299540E+03</rscale>
<asrwt>0</asrwt>
<pdfrwt beam="1">  1        2 0.10920199E+00 0.28299540E+03</pdfrwt>
<pdfrwt beam="2">  1       -2 0.43395179E-02 0.28299540E+03</pdfrwt>
<totfact> 0.99910432E+03</totfact>
</mgrwt>
</event>
<event>
 8      1 +1.6198320e-01 3.12098600e+02 7.81860800e-03 1.07934400e-01
       -2 -1    0    0    0  501 -0.0000000000e+00 +0.0000000000e+00 +4.4483533508e+01 4.4483533581e+01 2.5500000000e-03 0.0000e+00 -1.0000e+00
        2 -1    0    0  501    0 +0.0000000000e+00 -0.0000000000e+00 -5.4742463592e+02 5.4742463592e+02 2.5500000000e-03 0.0000e+00 1.0000e+00
  1000101  2    1    2    0    0 +8.3715545872e+01 -2.7338760258e+01 -1.9314835993e+02 2.4639802860e+02 1.2509995651e+02 1.1669e+01 0.0000e+00
 -1000101  2    1    2    0    0 -8.3715545872e+01 +2.7338760258e+01 -3.0979274248e+02 3.4551014091e+02 1.2510001497e+02 9.6931e+01 0.0000e+00
       11  1    3    3    0    0 +1.8302565371e-01 -8.4259432503e-03 -2.1998735360e-01 2.8629370112e-01 5.1100000000e-04 0.0000e+00 1.0000e+00
      255  1    3    3    0    0 +8.3532520219e+01 -2.7330334315e+01 -1.9292837258e+02 2.4611173490e+02 1.2500000000e+02 0.0000e+00 0.0000e+00
      -11  1    4    4    0    0 -7.2783580405e-05 +8.8694287791e-02 -2.8990623145e-01 3.0317085305e-01 5.1100000000e-04 0.0000e+00 -1.0000e+00
      255  1    4    4    0    0 -8.3715473089e+01 +2.7250065970e+01 -3.0950283625e+02 3.4520697006e+02 1.2500000000e+02 0.0000e+00 0.0000e+00
<mgrwt>
<rscale>  0 0.31209859E+03</rscale>
<asrwt>0</asrwt>
<pdfrwt beam="1">  1        2 0.84219170E-01 0.31209859E+03</pdfrwt>
<pdfrwt beam="2">  1       -2 0.68436209E-02 0.31209859E+03</pdfrwt>
<totfact> 0.67785578E+03</totfact>
</mgrwt>
</event>
<event>
 8      1 +1.6198320e-01 3.55619900e+02 7.81860800e-03 1.06033200e-01
        2 -1    0    0  501    0 +0.0000000000e+00 +0.0000000000e+00 +1.5617051075e+03 1.5617051075e+03 2.5500000000e-03 0.0000e+00 1.0000e+00
       -2 -1    0    0    0  501 -0.0000000000e+00 -0.0000000000e+00 -2.0244784750e+01 2.0244784911e+01 2.5500000000e-03 0.0000e+00 -1.0000e+00
  1000101  2    1    2    0    0 +3.0422858036e+01 -1.2005046816e+02 +8.8227521445e+02 8.9966506140e+02 1.2509997396e+02 3.3983e+01 0.0000e+00
 -1000101  2    1    2    0    0 -3.0422858036e+01 +1.2005046816e+02 +6.5918510827e+02 6.8228483098e+02 1.2509963397e+02 5.6845e+01 0.0000e+00
       11  1    3    3    0    0 -6.9615266471e-02 -1.2615129769e-01 +8.1084484898e-01 8.2354724544e-01 5.1100000000e-04 0.0000e+00 1.0000e+00
      255  1    3    3    0    0 +3.0492473303e+01 -1.1992431686e+02 +8.8146436960e+02 8.9884151416e+02 1.2500000000e+02 0.0000e+00 0.0000e+00
      -11  1    4    4    0    0 +2.3838109832e-03 +2.1458379763e-01 +6.9458823094e-01 7.2698346641e-01 5.1100000000e-04 0.0000e+00 -1.0000e+00
      255  1    4    4    0    0 -3.0425241847e+01 +1.1983588436e+02 +6.5849052004e+02 6.8155784751e+02 1.2500000000e+02 0.0000e+00 0.0000e+00
<mgrwt>
<rscale>  0 0.35561993E+03</rscale>
<asrwt>0</asrwt>
<pdfrwt beam="1">  1        2 0.24026236E+00 0.35561993E+03</pdfrwt>
<pdfrwt beam="2">  1       -2 0.31145818E-02 0.35561993E+03</pdfrwt>
<totfact> 0.50748408E+03</totfact>
</mgrwt>
</event>
<event>
 8      1 +1.6198320e-01 2.84863000e+02 7.81860800e-03 1.09306200e-01
        2 -1    0    0  501    0 +0.0000000000e+00 +0.0000000000e+00 +3.6459179692e+02 3.6459179692e+02 2.5500000000e-03 0.0000e+00 1.0000e+00
       -2 -1    0    0    0  501 -0.0000000000e+00 -0.0000000000e+00 -5.5642327792e+01 5.5642327851e+01 2.5500000000e-03 0.0000e+00 -1.0000e+00
  1000101  2    1    2    0    0 +4.7723573715e+01 +4.8444032576e+01 +1.5964885296e+02 2.1392115001e+02 1.2510051314e+02 2.0051e+02 0.0000e+00
 -1000101  2    1    2    0    0 -4.7723573715e+01 -4.8444032576e+01 +1.4930061616e+02 2.0631297477e+02 1.2509998318e+02 5.5354e+01 0.0000e+00
       11  1    3    3    0    0 +6.9095165999e-02 -2.1660173048e-02 +2.2895921418e-01 2.4013722731e-01 5.1100000000e-04 0.0000e+00 1.0000e+00
      255  1    3    3    0    0 +4.7654478549e+01 +4.8465692749e+01 +1.5941989375e+02 2.1368101278e+02 1.2500000000e+02 0.0000e+00 0.0000e+00
      -11  1    4    4    0    0 -1.2989257866e-01 -2.2882352864e-02 +8.1719511970e-02 1.5515806077e-01 5.1100000000e-04 0.0000e+00 -1.0000e+00
      255  1    4    4    0    0 -4.7593681136e+01 -4.8421150223e+01 +1.4921889665e+02 2.0615781671e+02 1.2500000000e+02 0.0000e+00 0.0000e+00
<mgrwt>
<rscale>  0 0.28486303E+03</rscale>
<asrwt>0</asrwt>
<pdfrwt beam="1">  1        2 0.56091044E-01 0.28486303E+03</pdfrwt>
<pdfrwt beam="2">  1       -2 0.85603584E-02 0.28486303E+03</pdfrwt>
<totfact> 0.74726407E+03</totfact>
</mgrwt>
</event>
<event>
 8      1 +1.6198320e-01 2.89626100e+02 7.81860800e-03 1.09054500e-01
        2 -1    0    0  501    0 +0.0000000000e+00 +0.0000000000e+00 +5.3599050902e+02 5.3599050903e+02 2.5500000000e-03 0.0000e+00 1.0000e+00
       -2 -1    0    0    0  501 -0.0000000000e+00 -0.0000000000e+00 -3.9125362638e+01 3.9125362721e+01 2.5500000000e-03 0.0000e+00 -1.0000e+00
  1000101  2    1    2    0    0 +4.2391894429e+01 +3.6319646899e+01 +3.4166846135e+02 3.6810806489e+02 1.2510004193e+02 7.1206e+01 0.0000e+00
 -1000101  2    1    2    0    0 -4.2391894429e+01 -3.6319646899e+01 +1.5519668503e+02 2.0700780685e+02 1.2510008629e+02 2.1567e+02 0.0000e+00
       11  1    3    3    0    0 -1.3792036926e-03 -6.7708629541e-02 +2.5474444914e-01 2.6359316419e-01 5.1100000000e-04 0.0000e+00 1.0000e+00
      255  1    3    3    0    0 +4.2393273632e+01 +3.6387355529e+01 +3.4141371691e+02 3.6784447173e+02 1.2500000000e+02 0.0000e+00 0.0000e+00
      -11  1    4    4    0    0 +4.7107585130e-02 +4.2075062047e-02 +1.0128375926e-01 1.1936539044e-01 5.1100000000e-04 0.0000e+00 -1.0000e+00
      255  1    4    4    0    0 -4.2439002014e+01 -3.6361721961e+01 +1.5509540127e+02 2.0688844146e+02 1.2500000000e+02 0.0000e+00 0.0000e+00
<mgrwt>
<rscale>  0 0.28962612E+03</rscale>
<asrwt>0</asrwt>
<pdfrwt beam="1">  1        2 0.82460069E-01 0.28962612E+03</pdfrwt>
<pdfrwt beam="2">  1       -2 0.60192872E-02 0.28962612E+03</pdfrwt>
<totfact> 0.84462322E+03</totfact>
</mgrwt>
</event>
<event>
 8      1 +1.6198320e-01 2.94462300e+02 7.81860800e-03 1.08804200e-01
        2 -1    0    0  501    0 +0.0000000000e+00 +0.0000000000e+00 +4.7458925832e+02 4.7458925833e+02 2.5500000000e-03 0.0000e+00 1.0000e+00
       -2 -1    0    0    0  501 -0.0000000000e+00 -0.0000000000e+00 -4.5675319542e+01 4.5675319613e+01 2.5500000000e-03 0.0000e+00 -1.0000e+00
  1000101  2    1    2    0    0 -7.0322180369e+01 +2.7970302599e+01 +1.8388191093e+02 2.3492573834e+02 1.2509995399e+02 2.9696e+01 0.0000e+00
 -1000101  2    1    2    0    0 +7.0322180369e+01 -2.7970302599e+01 +2.4503202785e+02 2.8533883960e+02 1.2510000733e+02 6.2440e+01 0.0000e+00
       11  1    3    3    0    0 -1.5219691629e-01 -7.7449016460e-03 +2.5973667523e-01 3.0114329879e-01 5.1100000000e-04 0.0000e+00 1.0000e+00
      255  1    3    3    0    0 -7.0169983453e+01 +2.7978047501e+01 +1.8362217425e+02 2.3462459504e+02 1.2500000000e+02 0.0000e+00 0.0000e+00
      -11  1    4    4    0    0 -4.7722576981e-02 +7.9056386331e-03 +2.9606615584e-02 5.6716455137e-02 5.1100000000e-04 0.0000e+00 -1.0000e+00
      255  1    4    4    0    0 +7.0369902946e+01 -2.7978208238e+01 +2.4500242123e+02 2.8528212315e+02 1.2500000000e+02 0.0000e+00 0.0000e+00
<mgrwt>
<rscale>  0 0.29446233E+03</rscale>
<asrwt>0</asrwt>
<pdfrwt beam="1">  1        2 0.73013735E-01 0.29446233E+03</pdfrwt>
<pdfrwt beam="2">  1       -2 0.70269720E-02 0.29446233E+03</pdfrwt>
<totfact> 0.76286660E+03</totfact>
</mgrwt>
</event>
<event>
 8      1 +1.6198320e-01 3.21349900e+02 7.81860800e-03 1.07503000e-01
       -2 -1    0    0    0  501 -0.0000000000e+00 +0.0000000000e+00 +2.7929987325e+01 2.7929987441e+01 2.5500000000e-03 0.0000e+00 -1.0000e+00
        2 -1    0    0  501    0 +0.0000000000e+00 -0.0000000000e+00 -9.2432705906e+02 9.2432705907e+02 2.5500000000e-03 0.0000e+00 1.0000e+00
  1000101  2    1    2    0    0 -1.9946304841e+01 -9.4985136985e+01 -3.6724034624e+02 3.9991940065e+02 1.2510005508e+02 5.9236e+01 0.0000e+00
 -1000101  2    1    2    0    0 +1.9946304841e+01 +9.4985136985e+01 -5.2915672550e+02 5.5233764586e+02 1.2509997430e+02 3.8968e+00 0.0000e+00
       11  1    3    3    0    0 +4.9846715879e-02 -1.5226919091e-01 -4.7002827647e-01 4.9658578653e-01 5.1100000000e-04 0.0000e+00 1.0000e+00
      255  1    3    3    0    0 -1.9996151557e+01 -9.4832867795e+01 -3.6677031796e+02 3.9942281486e+02 1.2500000000e+02 0.0000e+00 0.0000e+00
      -11  1    4    4    0    0 +4.3773620598e-02 +1.8347255437e-01 -4.8408222783e-01 5.1953264815e-01 5.1100000000e-04 0.0000e+00 -1.0000e+00
      255  1    4    4    0    0 +1.9902531221e+01 +9.4801664431e+01 -5.2867264327e+02 5.5181811321e+02 1.2500000000e+02 0.0000e+00 0.0000e+00
<mgrwt>
<rscale>  0 0.32134992E+03</rscale>
<asrwt>0</asrwt>
<pdfrwt beam="1">  1        2 0.14220414E+00 0.32134992E+03</pdfrwt>
<pdfrwt beam="2">  1       -2 0.42969218E-02 0.32134992E+03</pdfrwt>
<totfact> 0.72443901E+03</totfact>
</mgrwt>
</event>
<event>
 8      1 +1.6198320e-01 3.26296300e+02 7.81860800e-03 1.07278800e-01
        1 -1    0    0  501    0 +0.0000000000e+00 +0.0000000000e+00 +3.6806454247e+02 3.6806454250e+02 5.0400000000e-03 0.0000e+00 1.0000e+00
       -1 -1    0    0    0  501 -0.0000000000e+00 -0.0000000000e+00 -7.2316979262e+01 7.2316979438e+01 5.0400000000e-03 0.0000e+00 -1.0000e+00
  1000101  2    1    2    0    0 -2.8660839534e+01 +7.3753893547e+01 +5.5286043661e+01 1.5801149080e+02 1.2509997628e+02 1.6392e+01 0.0000e+00
 -1000101  2    1    2    0    0 +2.8660839534e+01 -7.3753893547e+01 +2.4046151955e+02 2.8237003114e+02 1.2510000626e+02 1.5680e+02 0.0000e+00
       11  1    3    3    0    0 -9.7410769987e-02 +5.9751485835e-02 +1.2253341317e-01 1.6755236982e-01 5.1100000000e-04 0.0000e+00 1.0000e+00
      255  1    3    3    0    0 -2.8563428764e+01 +7.3694142061e+01 +5.5163510248e+01 1.5784393843e+02 1.2500000000e+02 0.0000e+00 0.0000e+00
      -11  1    4    4    0    0 -7.1443612446e-02 -5.0313493597e-02 +8.0963910161e-02 1.1912620731e-01 5.1100000000e-04 0.0000e+00 -1.0000e+00
      255  1    4    4    0    0 +2.8732283146e+01 -7.3703580053e+01 +2.4038055564e+02 2.8225090493e+02 1.2500000000e+02 0.0000e+00 0.0000e+00
<mgrwt>
<rscale>  0 0.32629628E+03</rscale>
<asrwt>0</asrwt>
<pdfrwt beam="1">  1        1 0.56625314E-01 0.32629628E+03</pdfrwt>
<pdfrwt beam="2">  1       -1 0.11125689E-01 0.32629628E+03</pdfrwt>
<totfact> 0.34844042E+03</totfact>
</mgrwt>
</event>
<event>
 8      1 +1.6198320e-01 3.13123400e+02 7.81860800e-03 1.07885800e-01
        2 -1    0    0  501    0 +0.0000000000e+00 +0.0000000000e+00 +1.3948788157e+03 1.3948788157e+03 2.5500000000e-03 0.0000e+00 1.0000e+00
       -2 -1    0    0    0  501 -0.0000000000e+00 -0.0000000000e+00 -1.7572540707e+01 1.7572540892e+01 2.5500000000e-03 0.0000e+00 -1.0000e+00
  1000101  2    1    2    0    0 +1.0527286578e+01 -2.6622993471e+00 +2.6685601832e+02 2.9492382719e+02 1.2510003088e+02 1.2798e+01 0.0000e+00
 -1000101  2    1    2    0    0 -1.0527286578e+01 +2.6622993471e+00 +1.1104502567e+03 1.1175275295e+03 1.2510033912e+02 1.5991e+02 0.0000e+00
       11  1    3    3    0    0 +5.6018284456e-02 -3.8073083756e-02 +4.1220192499e-01 4.1772993188e-01 5.1100000000e-04 0.0000e+00 1.0000e+00
      255  1    3    3    0    0 +1.0471268293e+01 -2.6242262633e+00 +2.6644381640e+02 2.9450609725e+02 1.2500000000e+02 0.0000e+00 0.0000e+00
      -11  1    4    4    0    0 +3.0095130678e-02 -8.7865877421e-02 +6.4566327470e-01 6.5230932442e-01 5.1100000000e-04 0.0000e+00 -1.0000e+00
      255  1    4    4    0    0 -1.0557381708e+01 +2.7501652245e+00 +1.1098045934e+03 1.1168752201e+03 1.2500000000e+02 0.0000e+00 0.0000e+00
<mgrwt>
<rscale>  0 0.31312339E+03</rscale>
<asrwt>0</asrwt>
<pdfrwt beam="1">  1        2 0.21459683E+00 0.31312339E+03</pdfrwt>
<pdfrwt beam="2">  1       -2 0.27034667E-02 0.31312339E+03</pdfrwt>
<totfact> 0.77133010E+03</totfact>
</mgrwt>
</event>
<event>
 8      1 +1.6198320e-01 2.67459000e+02 7.81860800e-03 1.10274300e-01
        2 -1    0    0  501    0 +0.0000000000e+00 +0.0000000000e+00 +1.6111202520e+02 1.6111202522e+02 2.5500000000e-03 0.0000e+00 1.0000e+00
       -2 -1    0    0    0  501 -0.0000000000e+00 -0.0000000000e+00 -1.1100087690e+02 1.1100087693e+02 2.5500000000e-03 0.0000e+00 -1.0000e+00
  1000101  2    1    2    0    0 -2.3821664626e+01 +3.1283316917e+01 +5.1730724528e+01 1.4096883156e+02 1.2510006390e+02 1.8412e+02 0.0000e+00
 -1000101  2    1    2    0    0 +2.3821664626e+01 -3.1283316917e+01 -1.6195762262e+00 1.3114407060e+02 1.2510006636e+02 2.7031e+02 0.0000e+00
       11  1    3    3    0    0 -9.8440053870e-02 +8.7409358045e-02 +2.5163879127e-02 1.3403104870e-01 5.1100000000e-04 0.0000e+00 1.0000e+00
      255  1    3    3    0    0 -2.3723224572e+01 +3.1195907559e+01 +5.1705560649e+01 1.4083480051e+02 1.2500000000e+02 0.0000e+00 0.0000e+00
      -11  1    4    4    0    0 +8.9281538489e-02 +7.7808018471e-03 +6.2060596307e-02 1.0901152566e-01 5.1100000000e-04 0.0000e+00 -1.0000e+00
      255  1    4    4    0    0 +2.3732383088e+01 -3.1291097719e+01 -1.6816368225e+00 1.3103505907e+02 1.2500000000e+02 0.0000e+00 0.0000e+00
<mgrwt>
<rscale>  0 0.26745898E+03</rscale>
<asrwt>0</asrwt>
<pdfrwt beam="1">  1        2 0.24786465E-01 0.26745898E+03</pdfrwt>
<pdfrwt beam="2">  1       -2 0.17077058E-01 0.26745898E+03</pdfrwt>
<totfact> 0.59266960E+03</totfact>
</mgrwt>
</event>
<event>
 8      1 +1.6198320e-01 2.99183200e+02 7.81860800e-03 1.08565000e-01
       -2 -1    0    0    0  501 -0.0000000000e+00 +0.0000000000e+00 +1.6429983281e+01 1.6429983479e+01 2.5500000000e-03 0.0000e+00 -1.0000e+00
        2 -1    0    0  501    0 +0.0000000000e+00 -0.0000000000e+00 -1.3620001957e+03 1.3620001957e+03 2.5500000000e-03 0.0000e+00 1.0000e+00
  1000101  2    1    2    0    0 +1.2772276782e+01 +6.7316711562e+01 -8.8052181114e+02 8.9199961235e+02 1.2509987141e+02 5.1986e+01 0.0000e+00
 -1000101  2    1    2    0    0 -1.2772276782e+01 -6.7316711562e+01 -4.6504840127e+02 4.8643056683e+02 1.2510000043e+02 8.6240e+01 0.0000e+00
       11  1    3    3    0    0 +3.6901972364e-02 +5.0128767993e-02 -1.3081205376e+00 1.3096007983e+00 5.1100000000e-04 0.0000e+00 1.0000e+00
      255  1    3    3    0    0 +1.2735374810e+01 +6.7266582794e+01 -8.7921369060e+02 8.9069001155e+02 1.2500000000e+02 0.0000e+00 0.0000e+00
      -11  1    4    4    0    0 -1.0753738951e-01 -3.1325151863e-02 -3.5126340584e-01 3.6868929559e-01 5.1100000000e-04 0.0000e+00 -1.0000e+00
      255  1    4    4    0    0 -1.2664739392e+01 -6.7285386410e+01 -4.6469713787e+02 4.8606187753e+02 1.2500000000e+02 0.0000e+00 0.0000e+00
<mgrwt>
<rscale>  0 0.29918316E+03</rscale>
<asrwt>0</asrwt>
<pdfrwt beam="1">  1        2 0.20953840E+00 0.29918316E+03</pdfrwt>
<pdfrwt beam="2">  1       -2 0.25276908E-02 0.29918316E+03</pdfrwt>
<totfact> 0.88783926E+03</totfact>
</mgrwt>
</event>
<event>
 8      1 +1.6198320e-01 3.28805800e+02 7.81860800e-03 1.07166700e-01
       -1 -1    0    0    0  501 -0.0000000000e+00 +0.0000000000e+00 +7.7464041975e+01 7.7464042139e+01 5.0400000000e-03 0.0000e+00 -1.0000e+00
        1 -1    0    0  501    0 +0.0000000000e+00 -0.0000000000e+00 -3.4891426729e+02 3.4891426732e+02 5.0400000000e-03 0.0000e+00 1.0000e+00
  1000101  2    1    2    0    0 +3.6700438200e+01 -9.3879006743e+01 -1.8098339008e+02 2.4200243351e+02 1.2509996112e+02 1.2054e+02 0.0000e+00
 -1000101  2    1    2    0    0 -3.6700438200e+01 +9.3879006743e+01 -9.0466835234e+01 1.8437587595e+02 1.2510006108e+02 1.0898e+02 0.0000e+00
       11  1    3    3    0    0 -7.4726345308e-02 -5.9030797739e-02 -1.0757502896e-01 1.4367083817e-01 5.1100000000e-04 0.0000e+00 1.0000e+00
      255  1    3    3    0    0 +3.6775164546e+01 -9.3819975945e+01 -1.8087581505e+02 2.4185876268e+02 1.2500000000e+02 0.0000e+00 0.0000e+00
      -11  1    4    4    0    0 -1.2840650061e-02 +5.4156035919e-02 +4.8824091689e-02 7.4039256961e-02 5.1100000000e-04 0.0000e+00 -1.0000e+00
      255  1    4    4    0    0 -3.6687597550e+01 +9.3824850707e+01 -9.0515659326e+01 1.8430183669e+02 1.2500000000e+02 0.0000e+00 0.0000e+00
<mgrwt>
<rscale>  0 0.32880578E+03</rscale>
<asrwt>0</asrwt>
<pdfrwt beam="1">  1        1 0.53679117E-01 0.32880578E+03</pdfrwt>
<pdfrwt beam="2">  1       -1 0.11917545E-01 0.32880578E+03</pdfrwt>
<totfact> 0.33504873E+03</totfact>
</mgrwt>
</event>
<event>
 8      1 +1.6198320e-01 2.76519300e+02 7.81860800e-03 1.09760500e-01
        2 -1    0    0  501    0 +0.0000000000e+00 +0.0000000000e+00 +5.0146186822e+02 5.0146186822e+02 2.5500000000e-03 0.0000e+00 1.0000e+00
       -2 -1    0    0    0  501 -0.0000000000e+00 -0.0000000000e+00 -3.8120014802e+01 3.8120014888e+01 2.5500000000e-03 0.0000e+00 -1.0000e+00
  1000101  2    1    2    0    0 -2.8501330799e+01 -2.3035575328e+00 +3.3208625694e+02 3.5601798130e+02 1.2509951527e+02 1.3838e+01 0.0000e+00
 -1000101  2    1    2    0    0 +2.8501330799e+01 +2.3035575328e+00 +1.3125559647e+02 1.8356390181e+02 1.2510012873e+02 2.3017e+01 0.0000e+00
       11  1    3    3    0    0 +6.6585466520e-02 -1.5489677097e-02 +3.4133888524e-01 3.4811786818e-01 5.1100000000e-04 0.0000e+00 1.0000e+00
      255  1    3    3    0    0 -2.8567916265e+01 -2.2880678557e+00 +3.3174491806e+02 3.5566986343e+02 1.2500000000e+02 0.0000e+00 0.0000e+00
      -11  1    4    4    0    0 -4.5528326254e-02 +5.8743326846e-02 +2.1769408067e-02 7.7445304501e-02 5.1100000000e-04 0.0000e+00 -1.0000e+00
      255  1    4    4    0    0 +2.8546859125e+01 +2.2448142059e+00 +1.3123382706e+02 1.8348645651e+02 1.2500000000e+02 0.0000e+00 0.0000e+00
<mgrwt>
<rscale>  0 0.27651932E+03</rscale>
<asrwt>0</asrwt>
<pdfrwt beam="1">  1        2 0.77147970E-01 0.27651932E+03</pdfrwt>
<pdfrwt beam="2">  1       -2 0.58646184E-02 0.27651932E+03</pdfrwt>
<totfact> 0.94603532E+03</totfact>
</mgrwt>
</event>
<event>
 8      1 +1.6198320e-01 3.15584600e+02 7.81860800e-03 1.07770000e-01
        4 -1    0    0  501    0 +0.0000000000e+00 +0.0000000000e+00 +6.4066325329e+02 6.4066451206e+02 1.2700000000e+00 0.0000e+00 1.0000e+00
       -4 -1    0    0    0  501 -0.0000000000e+00 -0.0000000000e+00 -3.8851824724e+01 3.8872576251e+01 1.2700000000e+00 0.0000e+00 -1.0000e+00
  1000101  2    1    2    0    0 -7.4918221970e+00 +2.9279017331e+01 +1.0432054075e+02 1.6566886658e+02 1.2509999950e+02 2.7329e+01 0.0000e+00
 -1000101  2    1    2    0    0 +7.4918221970e+00 -2.9279017331e+01 +4.9749088781e+02 5.1386822174e+02 1.2509987049e+02 1.0381e+02 0.0000e+00
       11  1    3    3    0    0 -9.3001006544e-02 -6.7189114199e-03 +3.1781145141e-02 9.8512097214e-02 5.1100000000e-04 0.0000e+00 1.0000e+00
      255  1    3    3    0    0 -7.3988211905e+00 +2.9285736243e+01 +1.0428875960e+02 1.6557035448e+02 1.2500000000e+02 0.0000e+00 0.0000e+00
      -11  1    4    4    0    0 -7.6844339512e-02 +3.0379520253e-02 +2.4106846569e-01 2.5483766213e-01 5.1100000000e-04 0.0000e+00 -1.0000e+00
      255  1    4    4    0    0 +7.5686665365e+00 -2.9309396852e+01 +4.9724981935e+02 5.1361338407e+02 1.2500000000e+02 0.0000e+00 0.0000e+00
<mgrwt>
<rscale>  0 0.31558463E+03</rscale>
<asrwt>0</asrwt>
<pdfrwt beam="1">  1        4 0.98565265E-01 0.31558463E+03</pdfrwt>
<pdfrwt beam="2">  1       -4 0.59788973E-02 0.31558463E+03</pdfrwt>
<totfact> 0.29969718E+02</totfact>
</mgrwt>
</event>
<event>
 8      1 +1.6198320e-01 2.86779100e+02 7.81860800e-03 1.09204300e-01
       -2 -1    0    0    0  501 -0.0000000000e+00 +0.0000000000e+00 +1.2460900321e+01 1.2460900582e+01 2.5500000000e-03 0.0000e+00 -1.0000e+00
        2 -1    0    0  501    0 +0.0000000000e+00 -0.0000000000e+00 -1.6500059423e+03 1.6500059423e+03 2.5500000000e-03 0.0000e+00 1.0000e+00
  1000101  2    1    2    0    0 -4.2076723328e+01 -2.1226198430e+01 -5.1813217694e+02 5.3509992385e+02 1.2509985442e+02 2.9822e+02 0.0000e+00
 -1000101  2    1    2    0    0 +4.2076723328e+01 +2.1226198430e+01 -1.1194128650e+03 1.1273669190e+03 1.2509998232e+02 3.3772e+01 0.0000e+00
       11  1    3    3    0    0 -1.3371477928e-01 +5.3724571153e-03 -5.8111258806e-01 5.9632256927e-01 5.1100000000e-04 0.0000e+00 1.0000e+00
      255  1    3    3    0    0 -4.1943008549e+01 -2.1231570887e+01 -5.1755106435e+02 5.3450360128e+02 1.2500000000e+02 0.0000e+00 0.0000e+00
      -11  1    4    4    0    0 -2.7199769014e-02 -2.4405256640e-02 -6.8568998330e-02 7.7700789181e-02 5.1100000000e-04 0.0000e+00 -1.0000e+00
      255  1    4    4    0    0 +4.2103923097e+01 +2.1250603687e+01 -1.1193442960e+03 1.1272892182e+03 1.2500000000e+02 0.0000e+00 0.0000e+00
<mgrwt>
<rscale>  0 0.28677908E+03</rscale>
<asrwt>0</asrwt>
<pdfrwt beam="1">  1        2 0.25384690E+00 0.28677908E+03</pdfrwt>
<pdfrwt beam="2">  1       -2 0.19170629E-02 0.28677908E+03</pdfrwt>
<totfact> 0.93496515E+03</totfact>
</mgrwt>
</event>
<event>
 8      1 +1.6198320e-01 2.62755300e+02 7.81860800e-03 1.10549900e-01
       -1 -1    0    0    0  501 -0.0000000000e+00 +0.0000000000e+00 +5.9120652355e+01 5.9120652570e+01 5.0400000000e-03 0.0000e+00 1.0000e+00
        1 -1    0    0  501    0 +0.0000000000e+00 -0.0000000000e+00 -2.9194684766e+02 2.9194684770e+02 5.0400000000e-03 0.0000e+00 -1.0000e+00
  1000101  2    1    2    0    0 +2.7181658675e+01 -1.0995265502e+01 -1.5301610809e+02 1.9980909524e+02 1.2509998709e+02 4.0308e+01 0.0000e+00
 -1000101  2    1    2    0    0 -2.7181658675e+01 +1.0995265502e+01 -7.9810087208e+01 1.5125840503e+02 1.2509882750e+02 1.3373e+01 0.0000e+00
       11  1    3    3    0    0 +1.0036957025e-01 -6.3886698734e-02 -9.3306833350e-02 1.5120180944e-01 5.1100000000e-04 0.0000e+00 1.0000e+00
      255  1    3    3    0    0 +2.7081289105e+01 -1.0931378804e+01 -1.5292280126e+02 1.9965789343e+02 1.2500000000e+02 0.0000e+00 0.0000e+00
      -11  1    4    4    0    0 -8.7986430374e-02 +5.9123905642e-02 -1.4028247576e-01 1.7583140298e-01 5.1100000000e-04 0.0000e+00 -1.0000e+00
      255  1    4    4    0    0 -2.7093672245e+01 +1.0936141597e+01 -7.9669804732e+01 1.5108257363e+02 1.2500000000e+02 0.0000e+00 0.0000e+00
<mgrwt>
<rscale>  0 0.26275531E+03</rscale>
<asrwt>0</asrwt>
<pdfrwt beam="1">  1        1 0.44914899E-01 0.26275531E+03</pdfrwt>
<pdfrwt beam="2">  1       -1 0.90954852E-02 0.26275531E+03</pdfrwt>
<totfact> 0.63459880E+03</totfact>
</mgrwt>
</event>
<event>
 8      1 +1.6198320e-01 2.98253800e+02 7.81860800e-03 1.08611700e-01
        2 -1    0    0  501    0 +0.0000000000e+00 +0.0000000000e+00 +1.3357642264e+03 1.3357642265e+03 2.5500000000e-03 0.0000e+00 1.0000e+00
       -2 -1    0    0    0  501 -0.0000000000e+00 -0.0000000000e+00 -1.6648775497e+01 1.6648775692e+01 2.5500000000e-03 0.0000e+00 -1.0000e+00
  1000101  2    1    2    0    0 -5.1478240532e+01 +9.8469969613e+00 +3.7850158412e+02 4.0207020761e+02 1.2510008019e+02 7.5559e+01 0.0000e+00
 -1000101  2    1    2    0    0 +5.1478240532e+01 -9.8469969613e+00 +9.4061386683e+02 9.5034279453e+02 1.2509999223e+02 8.9604e+01 0.0000e+00
       11  1    3    3    0    0 +1.1477692397e-02 +9.3473261807e-02 +2.3481066947e-01 2.5299268708e-01 5.1100000000e-04 0.0000e+00 1.0000e+00
      255  1    3    3    0    0 -5.1489718224e+01 +9.7535236995e+00 +3.7826677345e+02 4.0181721492e+02 1.2500000000e+02 0.0000e+00 0.0000e+00
      -11  1    4    4    0    0 -4.7607290973e-02 -3.8842001447e-02 +2.0911448475e-01 2.1795477532e-01 5.1100000000e-04 0.0000e+00 -1.0000e+00
      255  1    4    4    0    0 +5.1525847823e+01 -9.8081549598e+00 +9.4040475234e+02 9.5012483976e+02 1.2500000000e+02 0.0000e+00 0.0000e+00
<mgrwt>
<rscale>  0 0.29825384E+03</rscale>
<asrwt>0</asrwt>
<pdfrwt beam="1">  1        2 0.20550224E+00 0.29825384E+03</pdfrwt>
<pdfrwt beam="2">  1       -2 0.25613494E-02 0.29825384E+03</pdfrwt>
<totfact> 0.89994422E+03</totfact>
</mgrwt>
</event>
<event>
 8      1 +1.6198320e-01 2.77806500e+02 7.81860800e-03 1.09689300e-01
        2 -1    0    0  501    0 +0.0000000000e+00 +0.0000000000e+00 +6.4964953272e+02 6.4964953273e+02 2.5500000000e-03 0.0000e+00 1.0000e+00
       -2 -1    0    0    0  501 -0.0000000000e+00 -0.0000000000e+00 -2.9699266645e+01 2.9699266755e+01 2.5500000000e-03 0.0000e+00 -1.0000e+00
  1000101  2    1    2    0    0 -5.6328780541e+01 -3.2339586759e+00 +2.5748583510e+02 2.9177445165e+02 1.2509990149e+02 1.7038e+01 0.0000e+00
 -1000101  2    1    2    0    0 +5.6328780541e+01 +3.2339586759e+00 +3.6246443097e+02 3.8757434783e+02 1.2510004544e+02 1.3874e+02 0.0000e+00
       11  1    3    3    0    0 -5.2068877214e-02 +9.1111631711e-02 +2.7876958251e-01 2.9786782079e-01 5.1100000000e-04 0.0000e+00 1.0000e+00
      255  1    3    3    0    0 -5.6276711664e+01 -3.3250703076e+00 +2.5720706552e+02 2.9147658383e+02 1.2500000000e+02 0.0000e+00 0.0000e+00
      -11  1    4    4    0    0 +1.3892717415e-01 -3.1695310422e-02 +2.8251941319e-01 3.1642192145e-01 5.1100000000e-04 0.0000e+00 -1.0000e+00
      255  1    4    4    0    0 +5.6189853367e+01 +3.2656539864e+00 +3.6218191156e+02 3.8725792591e+02 1.2500000000e+02 0.0000e+00 0.0000e+00
<mgrwt>
<rscale>  0 0.27780651E+03</rscale>
<asrwt>0</asrwt>
<pdfrwt beam="1">  1        2 0.99946082E-01 0.27780651E+03</pdfrwt>
<pdfrwt beam="2">  1       -2 0.45691180E-02 0.27780651E+03</pdfrwt>
<totfact> 0.10274336E+04</totfact>
</mgrwt>
</event>
<event>
 8      1 +1.6198320e-01 2.63537900e+02 7.81860800e-03 1.10503600e-01
       -2 -1    0    0    0  501 -0.0000000000e+00 +0.0000000000e+00 +7.6022853244e+02 7.6022853244e+02 2.5500000000e-03 0.0000e+00 -1.0000e+00
        2 -1    0    0  501    0 +0.0000000000e+00 -0.0000000000e+00 -2.2839250418e+01 2.2839250560e+01 2.5500000000e-03 0.0000e+00 1.0000e+00
  1000101  2    1    2    0    0 -6.9939443317e+00 +4.0140417556e+01 +3.9029597002e+02 4.1187513021e+02 1.2510000118e+02 1.1017e+02 0.0000e+00
 -1000101  2    1    2    0    0 +6.9939443317e+00 -4.0140417556e+01 +3.4709331200e+02 3.7119265279e+02 1.2510015936e+02 3.0980e+02 0.0000e+00
       11  1    3    3    0    0 -4.2154971287e-02 -4.3088209360e-02 +4.3337463920e-01 4.3754711108e-01 5.1100000000e-04 0.0000e+00 1.0000e+00
      255  1    3    3    0    0 -6.9517893604e+00 +4.0183505765e+01 +3.8986259538e+02 4.1143758310e+02 1.2500000000e+02 0.0000e+00 0.0000e+00
      -11  1    4    4    0    0 +9.1681589093e-02 -6.7185636038e-02 +4.3152842479e-01 4.4624709074e-01 5.1100000000e-04 0.0000e+00 -1.0000e+00
      255  1    4    4    0    0 +6.9022627426e+00 -4.0073231920e+01 +3.4666178358e+02 3.7074640570e+02 1.2500000000e+02 0.0000e+00 0.0000e+00
<mgrwt>
<rscale>  0 0.26353785E+03</rscale>
<asrwt>0</asrwt>
<pdfrwt beam="1">  1        2 0.35137315E-02 0.26353785E+03</pdfrwt>
<pdfrwt beam="2">  1       -2 0.11695821E+00 0.26353785E+03</pdfrwt>
<totfact> 0.14898601E+03</totfact>
</mgrwt>
</event>
<event>
 8      1 +1.6198320e-01 3.53324100e+02 7.81860800e-03 1.06125900e-01
        2 -1    0    0  501    0 +0.0000000000e+00 +0.0000000000e+00 +2.8580915089e+03 2.8580915089e+03 2.5500000000e-03 0.0000e+00 1.0000e+00
       -2 -1    0    0    0  501 -0.0000000000e+00 -0.0000000000e+00 -1.0919690380e+01 1.0919690678e+01 2.5500000000e-03 0.0000e+00 -1.0000e+00
  1000101  2    1    2    0    0 +8.7537106654e+01 +2.8933006237e-02 +2.1451624999e+03 2.1505894277e+03 1.2509991824e+02 5.9868e+01 0.0000e+00
 -1000101  2    1    2    0    0 -8.7537106654e+01 -2.8933006237e-02 +7.0200931860e+02 7.1842177189e+02 1.2510001218e+02 1.2825e+02 0.0000e+00
       11  1    3    3    0    0 +1.5966225411e-01 +2.4352763519e-02 +3.3237423915e+00 3.3276641716e+00 5.1100000000e-04 0.0000e+00 1.0000e+00
      255  1    3    3    0    0 +8.7377444399e+01 +4.5802427183e-03 +2.1418387575e+03 2.1472617635e+03 1.2500000000e+02 0.0000e+00 0.0000e+00
      -11  1    4    4    0    0 -1.4330259506e-01 +7.8633426173e-02 +6.8866478789e-01 7.0779820617e-01 5.1100000000e-04 0.0000e+00 -1.0000e+00
      255  1    4    4    0    0 -8.7393804058e+01 -1.0756643241e-01 +7.0132065381e+02 7.1771397368e+02 1.2500000000e+02 0.0000e+00 0.0000e+00
<mgrwt>
<rscale>  0 0.35332407E+03</rscale>
<asrwt>0</asrwt>
<pdfrwt beam="1">  1        2 0.43970661E+00 0.35332407E+03</pdfrwt>
<pdfrwt beam="2">  1       -2 0.16799516E-02 0.35332407E+03</pdfrwt>
<totfact> 0.25016274E+03</totfact>
</mgrwt>
</event>
<event>
 8      1 +1.6198320e-01 2.58317900e+02 7.81860800e-03 1.10815800e-01
        1 -1    0    0  501    0 +0.0000000000e+00 +0.0000000000e+00 +1.3546088884e+03 1.3546088884e+03 5.0400000000e-03 0.0000e+00 -1.0000e+00
       -1 -1    0    0    0  501 -0.0000000000e+00 -0.0000000000e+00 -1.2315019803e+01 1.2315020834e+01 5.0400000000e-03 0.0000e+00 1.0000e+00
  1000101  2    1    2    0    0 -2.2662466211e+01 -1.3407266933e+01 +5.7378442939e+02 5.8785365709e+02 1.2509999426e+02 5.6236e+00 0.0000e+00
 -1000101  2    1    2    0    0 +2.2662466211e+01 +1.3407266933e+01 +7.6850943921e+02 7.7907025215e+02 1.2510138871e+02 3.1793e+01 0.0000e+00
       11  1    3    3    0    0 -8.0456185245e-02 -6.5642244876e-03 +1.4407102398e-01 1.6514541428e-01 5.1100000000e-04 0.0000e+00 1.0000e+00
      255  1    3    3    0    0 -2.2582010025e+01 -1.3400702708e+01 +5.7364035837e+02 5.8768851168e+02 1.2500000000e+02 0.0000e+00 0.0000e+00
      -11  1    4    4    0    0 +5.7297761754e-02 -2.9174628271e-02 +1.1544698507e+00 1.1562590928e+00 5.1100000000e-04 0.0000e+00 -1.0000e+00
      255  1    4    4    0    0 +2.2605168449e+01 +1.3436441561e+01 +7.6735496936e+02 7.7791399306e+02 1.2500000000e+02 0.0000e+00 0.0000e+00
<mgrwt>
<rscale>  0 0.25831791E+03</rscale>
<asrwt>0</asrwt>
<pdfrwt beam="1">  1        1 0.20840131E+00 0.25831791E+03</pdfrwt>
<pdfrwt beam="2">  1       -1 0.18946190E-02 0.25831791E+03</pdfrwt>
<totfact> 0.66383890E+03</totfact>
</mgrwt>
</event>
<event>
 8      1 +1.6198320e-01 3.95938600e+02 7.81860800e-03 1.04519500e-01
        2 -1    0    0  501    0 +0.0000000000e+00 +0.0000000000e+00 +1.0501937746e+03 1.0501937746e+03 2.5500000000e-03 0.0000e+00 1.0000e+00
       -2 -1    0    0    0  501 -0.0000000000e+00 -0.0000000000e+00 -3.7318669094e+01 3.7318669181e+01 2.5500000000e-03 0.0000e+00 -1.0000e+00
  1000101  2    1    2    0    0 -4.6417162798e+01 +1.2502947840e+02 +7.1480259331e+02 7.3782090261e+02 1.2510001382e+02 8.0877e+01 0.0000e+00
 -1000101  2    1    2    0    0 +4.6417162798e+01 -1.2502947840e+02 +2.9807251221e+02 3.4969154119e+02 1.2510007183e+02 3.8506e+00 0.0000e+00
       11  1    3    3    0    0 -1.3662827321e-01 +9.9474151278e-02 +5.6126827831e-01 5.8616101301e-01 5.1100000000e-04 0.0000e+00 1.0000e+00
      255  1    3    3    0    0 -4.6280534525e+01 +1.2493000424e+02 +7.1424132503e+02 7.3723474160e+02 1.2500000000e+02 0.0000e+00 0.0000e+00
      -11  1    4    4    0    0 -2.9430385392e-02 -1.8542374214e-01 +3.0821709235e-01 3.6089631318e-01 5.1100000000e-04 0.0000e+00 -1.0000e+00
      255  1    4    4    0    0 +4.6446593184e+01 -1.2484405465e+02 +2.9776429512e+02 3.4933064488e+02 1.2500000000e+02 0.0000e+00 0.0000e+00
<mgrwt>
<rscale>  0 0.39593855E+03</rscale>
<asrwt>0</asrwt>
<pdfrwt beam="1">  1        2 0.16156829E+00 0.39593855E+03</pdfrwt>
<pdfrwt beam="2">  1       -2 0.57413331E-02 0.39593855E+03</pdfrwt>
<totfact> 0.38913529E+03</totfact>
</mgrwt>
</event>
<event>
 8      1 +1.6198320e-01 2.87718700e+02 7.81860800e-03 1.09154600e-01
       -2 -1    0    0    0  501 -0.0000000000e+00 +0.0000000000e+00 +1.7731094343e+01 1.7731094526e+01 2.5500000000e-03 0.0000e+00 -1.0000e+00
        2 -1    0    0  501    0 +0.0000000000e+00 -0.0000000000e+00 -1.1671872131e+03 1.1671872131e+03 2.5500000000e-03 0.0000e+00 1.0000e+00
  1000101  2    1    2    0    0 +2.4734465859e+01 +6.6505044050e+01 -5.8824813372e+02 6.0557458736e+02 1.2509995742e+02 5.0624e+01 0.0000e+00
 -1000101  2    1    2    0    0 -2.4734465859e+01 -6.6505044050e+01 -5.6120798499e+02 5.7934372022e+02 1.2510007617e+02 6.8321e+00 0.0000e+00
       11  1    3    3    0    0 +3.8992391440e-02 +1.0448571959e-01 -9.5016133968e-01 9.5668411962e-01 5.1100000000e-04 0.0000e+00 1.0000e+00
      255  1    3    3    0    0 +2.4695473468e+01 +6.6400558331e+01 -5.8729797238e+02 6.0461790324e+02 1.2500000000e+02 0.0000e+00 0.0000e+00
      -11  1    4    4    0    0 -1.4125779203e-02 -1.5742718010e-01 -4.8569648133e-01 5.1076823293e-01 5.1100000000e-04 0.0000e+00 -1.0000e+00
      255  1    4    4    0    0 -2.4720340080e+01 -6.6347616870e+01 -5.6072228851e+02 5.7883295199e+02 1.2500000000e+02 0.0000e+00 0.0000e+00
<mgrwt>
<rscale>  0 0.28771866E+03</rscale>
<asrwt>0</asrwt>
<pdfrwt beam="1">  1        2 0.17956720E+00 0.28771866E+03</pdfrwt>
<pdfrwt beam="2">  1       -2 0.27278616E-02 0.28771866E+03</pdfrwt>
<totfact> 0.10187281E+04</totfact>
</mgrwt>
</event>
<event>
 8      1 +1.6198320e-01 2.62274500e+02 7.81860800e-03 1.10578400e-01
       -2 -1    0    0    0  501 -0.0000000000e+00 +0.0000000000e+00 +2.8862582442e+01 2.8862582555e+01 2.5500000000e-03 0.0000e+00 -1.0000e+00
        2 -1    0    0  501    0 +0.0000000000e+00 -0.0000000000e+00 -5.9582261104e+02 5.9582261105e+02 2.5500000000e-03 0.0000e+00 1.0000e+00
  1000101  2    1    2    0    0 +1.1439781662e+01 +5.4315089815e+00 -3.7217090037e+02 3.9283782068e+02 1.2509997754e+02 1.0343e+02 0.0000e+00
 -1000101  2    1    2    0    0 -1.1439781662e+01 -5.4315089815e+00 -1.9478912824e+02 2.3184737293e+02 1.2510007977e+02 8.3517e+01 0.0000e+00
       11  1    3    3    0    0 -4.3841489233e-02 +1.5280311275e-02 -5.4731727383e-01 5.4928319057e-01 5.1100000000e-04 0.0000e+00 1.0000e+00
      255  1    3    3    0    0 +1.1483623151e+01 +5.4162286702e+00 -3.7162358309e+02 3.9228853749e+02 1.2500000000e+02 0.0000e+00 0.0000e+00
      -11  1    4    4    0    0 -5.3467051738e-02 +7.0422991252e-02 -6.5667508551e-02 1.1013903086e-01 5.1100000000e-04 0.0000e+00 -1.0000e+00
      255  1    4    4    0    0 -1.1386314610e+01 -5.5019319727e+00 -1.9472346073e+02 2.3173723390e+02 1.2500000000e+02 0.0000e+00 0.0000e+00
<mgrwt>
<rscale>  0 0.26227451E+03</rscale>
<asrwt>0</asrwt>
<pdfrwt beam="1">  1        2 0.91665008E-01 0.26227451E+03</pdfrwt>
<pdfrwt beam="2">  1       -2 0.44403978E-02 0.26227451E+03</pdfrwt>
<totfact> 0.11845607E+04</totfact>
</mgrwt>
</event>
<event>
 8      1 +1.6198320e-01 2.93226800e+02 7.81860800e-03 1.08867600e-01
        2 -1    0    0  501    0 +0.0000000000e+00 +0.0000000000e+00 +2.2045118215e+03 2.2045118215e+03 2.5500000000e-03 0.0000e+00 1.0000e+00
       -2 -1    0    0    0  501 -0.0000000000e+00 -0.0000000000e+00 -9.7506821793e+00 9.7506825128e+00 2.5500000000e-03 0.0000e+00 -1.0000e+00
  1000101  2    1    2    0    0 -1.5808934113e+01 +3.9969762139e+01 +6.1991130593e+02 6.3386713733e+02 1.2510002513e+02 1.8143e+02 0.0000e+00
 -1000101  2    1    2    0    0 +1.5808934113e+01 -3.9969762139e+01 +1.5748498334e+03 1.5803953667e+03 1.2510001204e+02 9.1434e+01 0.0000e+00
       11  1    3    3    0    0 -1.8754935323e-02 +9.6144975842e-02 +9.6841915148e-01 9.7336093925e-01 5.1100000000e-04 0.0000e+00 1.0000e+00
      255  1    3    3    0    0 -1.5790179178e+01 +3.9873617163e+01 +6.1894288678e+02 6.3289377639e+02 1.2500000000e+02 0.0000e+00 0.0000e+00
      -11  1    4    4    0    0 -5.8065880268e-02 +4.5440967928e-02 +9.3427779583e-01 9.3718290046e-01 5.1100000000e-04 0.0000e+00 -1.0000e+00
      255  1    4    4    0    0 +1.5866999994e+01 -4.0015203107e+01 +1.5739155556e+03 1.5794581838e+03 1.2500000000e+02 0.0000e+00 0.0000e+00
<mgrwt>
<rscale>  0 0.29322684E+03</rscale>
<asrwt>0</asrwt>
<pdfrwt beam="1">  1        2 0.33915558E+00 0.29322684E+03</pdfrwt>
<pdfrwt beam="2">  1       -2 0.15001054E-02 0.29322684E+03</pdfrwt>
<totfact> 0.68325810E+03</totfact>
</mgrwt>
</event>
<event>
 8      1 +1.6198320e-01 5.46170400e+02 7.81860800e-03 1.00238400e-01
       -1 -1    0    0    0  501 -0.0000000000e+00 +0.0000000000e+00 +1.0414425120e+02 1.0414425133e+02 5.0400000000e-03 0.0000e+00 -1.0000e+00
        1 -1    0    0  501    0 +0.0000000000e+00 -0.0000000000e+00 -7.1607909046e+02 7.1607909048e+02 5.0400000000e-03 0.0000e+00 1.0000e+00
  1000101  2    1    2    0    0 +1.5779517032e+02 -4.5038943602e+01 -5.7460290461e+02 6.1052955825e+02 1.2510004516e+02 1.2604e+02 0.0000e+00
 -1000101  2    1    2    0    0 -1.5779517032e+02 +4.5038943602e+01 -3.7331934650e+01 2.0969378355e+02 1.2509990927e+02 1.3147e+02 0.0000e+00
       11  1    3    3    0    0 +9.0755894378e-02 +6.8600155140e-02 -2.6951735590e-01 2.9254483400e-01 5.1100000000e-04 0.0000e+00 1.0000e+00
      255  1    3    3    0    0 +1.5770441443e+02 -4.5107543757e+01 -5.7433338725e+02 6.1023701342e+02 1.2500000000e+02 0.0000e+00 0.0000e+00
      -11  1    4    4    0    0 -2.1546399821e-01 +1.2899533398e-01 -1.0892958814e-02 2.5136318025e-01 5.1100000000e-04 0.0000e+00 -1.0000e+00
      255  1    4    4    0    0 -1.5757970632e+02 +4.4909948268e+01 -3.7321041691e+01 2.0944242037e+02 1.2500000000e+02 0.0000e+00 0.0000e+00
<mgrwt>
<rscale>  0 0.54617038E+03</rscale>
<asrwt>0</asrwt>
<pdfrwt beam="1">  1        1 0.11016601E+00 0.54617038E+03</pdfrwt>
<pdfrwt beam="2">  1       -1 0.16022193E-01 0.54617038E+03</pdfrwt>
<totfact> 0.78419175E+02</totfact>
</mgrwt>
</event>
<event>
 8      1 +1.6198320e-01 5.14582300e+02 7.81860800e-03 1.01004100e-01
       -3 -1    0    0    0  501 -0.0000000000e+00 +0.0000000000e+00 +1.4772356633e+02 1.4772360086e+02 1.0100000000e-01 0.0000e+00 -1.0000e+00
        3 -1    0    0  501    0 +0.0000000000e+00 -0.0000000000e+00 -4.4812571916e+02 4.4812573054e+02 1.0100000000e-01 0.0000e+00 1.0000e+00
  1000101  2    1    2    0    0 -8.6670899934e+01 +6.2864704635e+01 +7.8720223834e+01 1.8251216824e+02 1.2509996775e+02 2.2784e+01 0.0000e+00
 -1000101  2    1    2    0    0 +8.6670899934e+01 -6.2864704635e+01 -3.7912237666e+02 4.1333716316e+02 1.2510003189e+02 3.0271e+00 0.0000e+00
       11  1    3    3    0    0 -4.1450814335e-02 +1.4852966281e-01 +8.3290774650e-02 1.7526221785e-01 5.1100000000e-04 0.0000e+00 1.0000e+00
      255  1    3    3    0    0 -8.6629449120e+01 +6.2716174972e+01 +7.8636933059e+01 1.8233690603e+02 1.2500000000e+02 0.0000e+00 0.0000e+00
      -11  1    4    4    0    0 +2.9202287527e-02 +4.5667511565e-02 -4.4066624189e-02 6.9860029329e-02 5.1100000000e-04 0.0000e+00 -1.0000e+00
      255  1    4    4    0    0 +8.6641697647e+01 -6.2910372146e+01 -3.7907831004e+02 4.1326730313e+02 1.2500000000e+02 0.0000e+00 0.0000e+00
<mgrwt>
<rscale>  0 0.51458233E+03</rscale>
<asrwt>0</asrwt>
<pdfrwt beam="1">  1        3 0.68942421E-01 0.51458233E+03</pdfrwt>
<pdfrwt beam="2">  1       -3 0.22726706E-01 0.51458233E+03</pdfrwt>
<totfact> 0.95865519E+01</totfact>
</mgrwt>
</event>
<event>
 8      1 +1.6198320e-01 2.84975500e+02 7.81860800e-03 1.09300200e-01
        2 -1    0    0  501    0 +0.0000000000e+00 +0.0000000000e+00 +6.0222341258e+02 6.0222341259e+02 2.5500000000e-03 0.0000e+00 1.0000e+00
       -2 -1    0    0    0  501 -0.0000000000e+00 -0.0000000000e+00 -3.3712994066e+01 3.3712994163e+01 2.5500000000e-03 0.0000e+00 -1.0000e+00
  1000101  2    1    2    0    0 -4.5327706202e+01 -3.5545481417e+01 +3.6577997674e+02 3.9084917311e+02 1.2509997019e+02 4.5329e+01 0.0000e+00
 -1000101  2    1    2    0    0 +4.5327706202e+01 +3.5545481417e+01 +2.0273044178e+02 2.4508723364e+02 1.2510011139e+02 4.9160e+01 0.0000e+00
       11  1    3    3    0    0 -3.0190568140e-02 +6.9021309269e-03 +5.2935594224e-01 5.3026133606e-01 5.1100000000e-04 0.0000e+00 1.0000e+00
      255  1    3    3    0    0 -4.5297515633e+01 -3.5552383548e+01 +3.6525062079e+02 3.9031891178e+02 1.2500000000e+02 0.0000e+00 0.0000e+00
      -11  1    4    4    0    0 +3.6500988440e-02 +1.3083707972e-01 +2.2819493118e-01 2.6556327179e-01 5.1100000000e-04 0.0000e+00 -1.0000e+00
      255  1    4    4    0    0 +4.5291205213e+01 +3.5414644337e+01 +2.0250224685e+02 2.4482167037e+02 1.2500000000e+02 0.0000e+00 0.0000e+00
<mgrwt>
<rscale>  0 0.28497547E+03</rscale>
<asrwt>0</asrwt>
<pdfrwt beam="1">  1        2 0.92649744E-01 0.28497547E+03</pdfrwt>
<pdfrwt beam="2">  1       -2 0.51866151E-02 0.28497547E+03</pdfrwt>
<totfact> 0.92731690E+03</totfact>
</mgrwt>
</event>
<event>
 8      1 +1.6198320e-01 3.20899100e+02 7.81860800e-03 1.07523600e-01
       -2 -1    0    0    0  501 -0.0000000000e+00 +0.0000000000e+00 +3.1140901956e+01 3.1140902061e+01 2.5500000000e-03 0.0000e+00 -1.0000e+00
        2 -1    0    0  501    0 +0.0000000000e+00 -0.0000000000e+00 -8.2669619053e+02 8.2669619054e+02 2.5500000000e-03 0.0000e+00 1.0000e+00
  1000101  2    1    2    0    0 -9.0635075150e+01 +3.7921147294e+01 -3.4161985314e+02 3.7683799037e+02 1.2510002665e+02 5.7406e+01 0.0000e+00
 -1000101  2    1    2    0    0 +9.0635075150e+01 -3.7921147294e+01 -4.5393543544e+02 4.8099910223e+02 1.2510006610e+02 5.0273e+01 0.0000e+00
       11  1    3    3    0    0 -1.8243900920e-01 +1.4161167849e-03 -3.6152248469e-01 4.0495032476e-01 5.1100000000e-04 0.0000e+00 1.0000e+00
      255  1    3    3    0    0 -9.0452636141e+01 +3.7919731177e+01 -3.4125833065e+02 3.7643304004e+02 1.2500000000e+02 0.0000e+00 0.0000e+00
      -11  1    4    4    0    0 +1.4980417999e-01 +3.7006816182e-02 -3.9265779183e-01 4.2189003235e-01 5.1100000000e-04 0.0000e+00 -1.0000e+00
      255  1    4    4    0    0 +9.0485270970e+01 -3.7958154110e+01 -4.5354277765e+02 4.8057721220e+02 1.2500000000e+02 0.0000e+00 0.0000e+00
<mgrwt>
<rscale>  0 0.32089914E+03</rscale>
<asrwt>0</asrwt>
<pdfrwt beam="1">  1        2 0.12718401E+00 0.32089914E+03</pdfrwt>
<pdfrwt beam="2">  1       -2 0.47909086E-02 0.32089914E+03</pdfrwt>
<totfact> 0.71234155E+03</totfact>
</mgrwt>
</event>
<event>
 8      1 +1.6198320e-01 2.86213800e+02 7.81860800e-03 1.09234300e-01
       -2 -1    0    0    0  501 -0.0000000000e+00 +0.0000000000e+00 +1.7253322585e+01 1.7253322773e+01 2.5500000000e-03 0.0000e+00 -1.0000e+00
        2 -1    0    0  501    0 +0.0000000000e+00 -0.0000000000e+00 -1.1869935419e+03 1.1869935419e+03 2.5500000000e-03 0.0000e+00 1.0000e+00
  1000101  2    1    2    0    0 -4.7382488431e+00 +4.5810013629e+01 -3.6589548305e+02 3.8942331030e+02 1.2509996698e+02 5.3087e+02 0.0000e+00
 -1000101  2    1    2    0    0 +4.7382488431e+00 -4.5810013629e+01 -8.0384473622e+02 8.1482355433e+02 1.2510018543e+02 1.6245e+01 0.0000e+00
       11  1    3    3    0    0 -2.8430620943e-02 -3.2827383580e-02 -4.3754294230e-01 4.3969310297e-01 5.1100000000e-04 0.0000e+00 1.0000e+00
      255  1    3    3    0    0 -4.7098182221e+00 +4.5842841013e+01 -3.6545794011e+02 3.8898361720e+02 1.2500000000e+02 0.0000e+00 0.0000e+00
      -11  1    4    4    0    0 -4.9019587814e-02 -1.0600409201e-01 -4.4586546244e-01 4.6090786415e-01 5.1100000000e-04 0.0000e+00 -1.0000e+00
      255  1    4    4    0    0 +4.7872684309e+00 -4.5704009537e+01 -8.0339887075e+02 8.1436264646e+02 1.2500000000e+02 0.0000e+00 0.0000e+00
<mgrwt>
<rscale>  0 0.28621378E+03</rscale>
<asrwt>0</asrwt>
<pdfrwt beam="1">  1        2 0.18261433E+00 0.28621378E+03</pdfrwt>
<pdfrwt beam="2">  1       -2 0.26543583E-02 0.28621378E+03</pdfrwt>
<totfact> 0.10333905E+04</totfact>
</mgrwt>
</event>
<event>
 8      1 +1.6198320e-01 3.40811900e+02 7.81860800e-03 1.06645100e-01
        2 -1    0    0  501    0 +0.0000000000e+00 +0.0000000000e+00 +2.0890150108e+01 2.0890150264e+01 2.5500000000e-03 0.0000e+00 1.0000e+00
       -2 -1    0    0    0  501 -0.0000000000e+00 -0.0000000000e+00 -1.3900424088e+03 1.3900424088e+03 2.5500000000e-03 0.0000e+00 -1.0000e+00
  1000101  2    1    2    0    0 -4.8005579250e+01 +9.2427453771e+01 -8.9325379423e+02 9.0796461189e+02 1.2510006264e+02 5.4222e+01 0.0000e+00
 -1000101  2    1    2    0    0 +4.8005579250e+01 -9.2427453771e+01 -4.7589846444e+02 5.0296794717e+02 1.2510011018e+02 1.7229e+02 0.0000e+00
       11  1    3    3    0    0 -7.1309283844e-02 +1.9681167876e-01 -1.2147884944e+00 1.2326926617e+00 5.1100000000e-04 0.0000e+00 1.0000e+00
      255  1    3    3    0    0 -4.7934269966e+01 +9.2230642093e+01 -8.9203900574e+02 9.0673191922e+02 1.2500000000e+02 0.0000e+00 0.0000e+00
      -11  1    4    4    0    0 -4.6932532556e-02 -1.9732006465e-02 -3.8420068707e-01 3.8755960026e-01 5.1100000000e-04 0.0000e+00 -1.0000e+00
      255  1    4    4    0    0 +4.8052511783e+01 -9.2407721765e+01 -4.7551426375e+02 5.0258038756e+02 1.2500000000e+02 0.0000e+00 0.0000e+00
<mgrwt>
<rscale>  0 0.34081194E+03</rscale>
<asrwt>0</asrwt>
<pdfrwt beam="1">  1        2 0.32138704E-02 0.34081194E+03</pdfrwt>
<pdfrwt beam="2">  1       -2 0.21385261E+00 0.34081194E+03</pdfrwt>
<totfact> 0.33731851E+02</totfact>
</mgrwt>
</event>
<event>
 8      1 +1.6198320e-01 4.33268400e+02 7.81860800e-03 1.03283200e-01
       -1 -1    0    0    0  501 -0.0000000000e+00 +0.0000000000e+00 +1.3218496701e+02 1.3218496710e+02 5.0400000000e-03 0.0000e+00 -1.0000e+00
        1 -1    0    0  501    0 +0.0000000000e+00 -0.0000000000e+00 -3.5503560181e+02 3.5503560185e+02 5.0400000000e-03 0.0000e+00 1.0000e+00
  1000101  2    1    2    0    0 +7.9995298165e+01 -1.3177163520e+02 -2.0892447968e+02 2.8820559458e+02 1.2510001985e+02 1.3193e+02 0.0000e+00
 -1000101  2    1    2    0    0 -7.9995298165e+01 +1.3177163520e+02 -1.3926155130e+01 1.9901497437e+02 1.2510000263e+02 1.2424e+02 0.0000e+00
       11  1    3    3    0    0 -1.9887467985e-02 -2.4280223593e-02 -1.6744729533e-01 1.7036401755e-01 5.1100000000e-04 0.0000e+00 1.0000e+00
      255  1    3    3    0    0 +8.0015185633e+01 -1.3174735497e+02 -2.0875703238e+02 2.8803523056e+02 1.2500000000e+02 0.0000e+00 0.0000e+00
      -11  1    4    4    0    0 -1.6083716213e-01 +9.0230918827e-02 -4.8134368809e-02 1.9059745543e-01 5.1100000000e-04 0.0000e+00 -1.0000e+00
      255  1    4    4    0    0 -7.9834461003e+01 +1.3168140428e+02 -1.3878020761e+01 1.9882437692e+02 1.2500000000e+02 0.0000e+00 0.0000e+00
<mgrwt>
<rscale>  0 0.43326837E+03</rscale>
<asrwt>0</asrwt>
<pdfrwt beam="1">  1        1 0.54620862E-01 0.43326837E+03</pdfrwt>
<pdfrwt beam="2">  1       -1 0.20336149E-01 0.43326837E+03</pdfrwt>
<totfact> 0.13927110E+03</totfact>
</mgrwt>
</event>
<event>
 8      1 +1.6198320e-01 2.68817300e+02 7.81860800e-03 1.10195800e-01
       -2 -1    0    0    0  501 -0.0000000000e+00 +0.0000000000e+00 +4.7536839373e+00 4.7536846212e+00 2.5500000000e-03 0.0000e+00 -1.0000e+00
        2 -1    0    0  501    0 +0.0000000000e+00 -0.0000000000e+00 -3.8003554398e+03 3.8003554398e+03 2.5500000000e-03 0.0000e+00 1.0000e+00
  1000101  2    1    2    0    0 -1.6782047713e+01 -4.5002969213e+01 -2.0455892413e+03 2.0499737261e+03 1.2510007625e+02 2.6295e+01 0.0000e+00
 -1000101  2    1    2    0    0 +1.6782047713e+01 +4.5002969213e+01 -1.7500125145e+03 1.7551353983e+03 1.2509820571e+02 3.8036e+01 0.0000e+00
       11  1    3    3    0    0 -6.7312584958e-03 -1.3696091855e-01 -2.5893107104e+00 2.5929392240e+00 5.1100000000e-04 0.0000e+00 1.0000e+00
      255  1    3    3    0    0 -1.6775316454e+01 -4.4866008295e+01 -2.0429999306e+03 2.0473807869e+03 1.2500000000e+02 0.0000e+00 0.0000e+00
      -11  1    4    4    0    0 -7.4244192599e-02 +6.9918502922e-02 -1.7521780161e+00 1.7551435436e+00 5.1100000000e-04 0.0000e+00 -1.0000e+00
      255  1    4    4    0    0 +1.6856291906e+01 +4.4933050710e+01 -1.7482603365e+03 1.7533802548e+03 1.2500000000e+02 0.0000e+00 0.0000e+00
<mgrwt>
<rscale>  0 0.26881734E+03</rscale>
<asrwt>0</asrwt>
<pdfrwt beam="1">  1        2 0.58466764E+00 0.26881734E+03</pdfrwt>
<pdfrwt beam="2">  1       -2 0.73133908E-03 0.26881734E+03</pdfrwt>
<totfact> 0.21142668E+03</totfact>
</mgrwt>
</event>
<event>
 8      1 +1.6198320e-01 3.00655700e+02 7.81860800e-03 1.08491300e-01
       -2 -1    0    0    0  501 -0.0000000000e+00 +0.0000000000e+00 +3.0174322747e+01 3.0174322855e+01 2.5500000000e-03 0.0000e+00 -1.0000e+00
        2 -1    0    0  501    0 +0.0000000000e+00 -0.0000000000e+00 -7.4893001136e+02 7.4893001136e+02 2.5500000000e-03 0.0000e+00 1.0000e+00
  1000101  2    1    2    0    0 +7.1816795782e+00 +8.0140572028e+01 -3.0293876178e+02 3.3748480356e+02 1.2510000577e+02 9.8483e+01 0.0000e+00
 -1000101  2    1    2    0    0 -7.1816795782e+00 -8.0140572028e+01 -4.1581692684e+02 4.4161953065e+02 1.2509998163e+02 1.3938e+01 0.0000e+00
       11  1    3    3    0    0 +1.7812913338e-02 +1.4099148995e-01 -4.9890263619e-01 5.1874849556e-01 5.1100000000e-04 0.0000e+00 1.0000e+00
      255  1    3    3    0    0 +7.1638666649e+00 +7.9999580538e+01 -3.0243985914e+02 3.3696605507e+02 1.2500000000e+02 0.0000e+00 0.0000e+00
      -11  1    4    4    0    0 +7.6868412167e-02 -4.3042566115e-02 -4.5092033897e-01 4.5944621938e-01 5.1100000000e-04 0.0000e+00 -1.0000e+00
      255  1    4    4    0    0 -7.2585479904e+00 -8.0097529462e+01 -4.1536600650e+02 4.4116008443e+02 1.2500000000e+02 0.0000e+00 0.0000e+00
<mgrwt>
<rscale>  0 0.30065566E+03</rscale>
<asrwt>0</asrwt>
<pdfrwt beam="1">  1        2 0.11521999E+00 0.30065566E+03</pdfrwt>
<pdfrwt beam="2">  1       -2 0.46422041E-02 0.30065566E+03</pdfrwt>
<totfact> 0.84593132E+03</totfact>
</mgrwt>
</event>
<event>
 8      1 +1.6198320e-01 3.59860200e+02 7.81860800e-03 1.05863900e-01
       -1 -1    0    0    0  501 -0.0000000000e+00 +0.0000000000e+00 +2.2635057527e+01 2.2635058088e+01 5.0400000000e-03 0.0000e+00 1.0000e+00
        1 -1    0    0  501    0 +0.0000000000e+00 -0.0000000000e+00 -1.4302962163e+03 1.4302962163e+03 5.0400000000e-03 0.0000e+00 -1.0000e+00
  1000101  2    1    2    0    0 +4.4580828999e+01 -3.7719809410e+01 -2.3795029853e+02 2.7510116572e+02 1.2510024970e+02 2.0857e+01 0.0000e+00
 -1000101  2    1    2    0    0 -4.4580828999e+01 +3.7719809410e+01 -1.1697108603e+03 1.1778301087e+03 1.2510009591e+02 4.6679e+01 0.0000e+00
       11  1    3    3    0    0 +4.6776969560e-02 +1.3077998658e-02 +3.1033239969e-03 4.8672483716e-02 5.1100000000e-04 0.0000e+00 1.0000e+00
      255  1    3    3    0    0 +4.4534052030e+01 -3.7732887408e+01 -2.3795340185e+02 2.7505249324e+02 1.2500000000e+02 0.0000e+00 0.0000e+00
      -11  1    4    4    0    0 +3.0361547629e-02 -7.2976504876e-03 -1.2860324138e+00 1.2864115632e+00 5.1100000000e-04 0.0000e+00 -1.0000e+00
      255  1    4    4    0    0 -4.4611190547e+01 +3.7727107060e+01 -1.1684248279e+03 1.1765436971e+03 1.2500000000e+02 0.0000e+00 0.0000e+00
<mgrwt>
<rscale>  0 0.35986018E+03</rscale>
<asrwt>0</asrwt>
<pdfrwt beam="1">  1        1 0.22004550E+00 0.35986018E+03</pdfrwt>
<pdfrwt beam="2">  1       -1 0.34823177E-02 0.35986018E+03</pdfrwt>
<totfact> 0.24083564E+03</totfact>
</mgrwt>
</event>
<event>
 8      1 +1.6198320e-01 3.44216200e+02 7.81860800e-03 1.06501400e-01
       -2 -1    0    0    0  501 -0.0000000000e+00 +0.0000000000e+00 +1.5780943044e+02 1.5780943046e+02 2.5500000000e-03 0.0000e+00 -1.0000e+00
        2 -1    0    0  501    0 +0.0000000000e+00 -0.0000000000e+00 -1.8770231464e+02 1.8770231466e+02 2.5500000000e-03 0.0000e+00 1.0000e+00
  1000101  2    1    2    0    0 +2.6531758522e+01 -6.0532119004e+01 -1.1331079096e+02 1.8126613574e+02 1.2509997993e+02 4.5840e+01 0.0000e+00
 -1000101  2    1    2    0    0 -2.6531758522e+01 +6.0532119004e+01 +8.3417906755e+01 1.6424560937e+02 1.2509996558e+02 4.6786e+01 0.0000e+00
       11  1    3    3    0    0 +7.8427874308e-02 -6.9284097866e-02 -2.1085586515e-01 2.3539684508e-01 5.1100000000e-04 0.0000e+00 1.0000e+00
      255  1    3    3    0    0 +2.6453330648e+01 -6.0462834906e+01 -1.1309993509e+02 1.8103073890e+02 1.2500000000e+02 0.0000e+00 0.0000e+00
      -11  1    4    4    0    0 -6.1099037232e-02 +6.1315288506e-02 +1.8067133705e-01 2.0033734077e-01 5.1100000000e-04 0.0000e+00 -1.0000e+00
      255  1    4    4    0    0 -2.6470659485e+01 +6.0470803715e+01 +8.3237235418e+01 1.6404527203e+02 1.2500000000e+02 0.0000e+00 0.0000e+00
<mgrwt>
<rscale>  0 0.34421618E+03</rscale>
<asrwt>0</asrwt>
<pdfrwt beam="1">  1        2 0.28877279E-01 0.34421618E+03</pdfrwt>
<pdfrwt beam="2">  1       -2 0.24278374E-01 0.34421618E+03</pdfrwt>
<totfact> 0.27498004E+03</totfact>
</mgrwt>
</event>
<event>
 8      1 +1.6198320e-01 3.05275800e+02 7.81860800e-03 1.08263300e-01
       -2 -1    0    0    0  501 -0.0000000000e+00 +0.0000000000e+00 +2.9507521972e+01 2.9507522082e+01 2.5500000000e-03 0.0000e+00 -1.0000e+00
        2 -1    0    0  501    0 +0.0000000000e+00 -0.0000000000e+00 -7.8957241544e+02 7.8957241544e+02 2.5500000000e-03 0.0000e+00 1.0000e+00
  1000101  2    1    2    0    0 +1.8200415054e+01 -7.5469090719e+01 -4.8807580375e+02 5.0979865426e+02 1.2509931621e+02 2.7618e+02 0.0000e+00
 -1000101  2    1    2    0    0 -1.8200415054e+01 +7.5469090719e+01 -2.7198908972e+02 3.0928128326e+02 1.2509999397e+02 2.4282e+02 0.0000e+00
       11  1    3    3    0    0 -2.6899390878e-02 -1.0140320415e-01 -7.2402572894e-01 7.3158711329e-01 5.1100000000e-04 0.0000e+00 1.0000e+00
      255  1    3    3    0    0 +1.8227314445e+01 -7.5367687514e+01 -4.8735177802e+02 5.0906706715e+02 1.2500000000e+02 0.0000e+00 0.0000e+00
      -11  1    4    4    0    0 -1.1241415577e-01 +4.0498606659e-02 -2.1077454507e-01 2.4228753482e-01 5.1100000000e-04 0.0000e+00 -1.0000e+00
      255  1    4    4    0    0 -1.8088000898e+01 +7.5428592112e+01 -2.7177831517e+02 3.0903899573e+02 1.2500000000e+02 0.0000e+00 0.0000e+00
<mgrwt>
<rscale>  0 0.30527578E+03</rscale>
<asrwt>0</asrwt>
<pdfrwt beam="1">  1        2 0.12147266E+00 0.30527578E+03</pdfrwt>
<pdfrwt beam="2">  1       -2 0.45396194E-02 0.30527578E+03</pdfrwt>
<totfact> 0.81912984E+03</totfact>
</mgrwt>
</event>
<event>
 8      1 +1.6198320e-01 2.94399500e+02 7.81860800e-03 1.08807400e-01
       -2 -1    0    0    0  501 -0.0000000000e+00 +0.0000000000e+00 +2.5978122714e+01 2.5978122839e+01 2.5500000000e-03 0.0000e+00 -1.0000e+00
        2 -1    0    0  501    0 +0.0000000000e+00 -0.0000000000e+00 -8.3407751526e+02 8.3407751526e+02 2.5500000000e-03 0.0000e+00 1.0000e+00
  1000101  2    1    2    0    0 +2.0876469719e+01 +7.1784412720e+01 -4.6455162751e+02 4.8687483968e+02 1.2510022378e+02 1.7939e+02 0.0000e+00
 -1000101  2    1    2    0    0 -2.0876469719e+01 -7.1784412720e+01 -3.4354776503e+02 3.7318079842e+02 1.2510001021e+02 6.9075e+01 0.0000e+00
       11  1    3    3    0    0 -5.0696185351e-02 -2.1186082419e-02 -3.5324504353e-01 3.5749304216e-01 5.1100000000e-04 0.0000e+00 1.0000e+00
      255  1    3    3    0    0 +2.0927165905e+01 +7.1805598802e+01 -4.6419838247e+02 4.8651734664e+02 1.2500000000e+02 0.0000e+00 0.0000e+00
      -11  1    4    4    0    0 -4.7366965280e-02 -1.1837284476e-01 -1.4902338202e-01 1.9612238344e-01 5.1100000000e-04 0.0000e+00 -1.0000e+00
      255  1    4    4    0    0 -2.0829102754e+01 -7.1666039875e+01 -3.4339874165e+02 3.7298467604e+02 1.2500000000e+02 0.0000e+00 0.0000e+00
<mgrwt>
<rscale>  0 0.29439951E+03</rscale>
<asrwt>0</asrwt>
<pdfrwt beam="1">  1        2 0.12831960E+00 0.29439951E+03</pdfrwt>
<pdfrwt beam="2">  1       -2 0.39966349E-02 0.29439951E+03</pdfrwt>
<totfact> 0.92462740E+03</totfact>
</mgrwt>
</event>
<event>
 8      1 +1.6198320e-01 5.81314700e+02 7.81860800e-03 9.94494900e-02
       -2 -1    0    0    0  501 -0.0000000000e+00 +0.0000000000e+00 +2.8982464622e+02 2.8982464623e+02 2.5500000000e-03 0.0000e+00 -1.0000e+00
        2 -1    0    0  501    0 +0.0000000000e+00 -0.0000000000e+00 -2.9149245726e+02 2.9149245728e+02 2.5500000000e-03 0.0000e+00 1.0000e+00
  1000101  2    1    2    0    0 +1.4818469668e+02 +1.6236442957e+01 -2.1672678909e+02 2.9127793856e+02 1.2509999988e+02 1.2831e+02 0.0000e+00
 -1000101  2    1    2    0    0 -1.4818469668e+02 -1.6236442957e+01 +2.1505897804e+02 2.9003916495e+02 1.2510006697e+02 1.2100e+02 0.0000e+00
       11  1    3    3    0    0 +2.8144222965e-02 +8.6250080774e-02 -1.3322323537e-01 1.6118270777e-01 5.1100000000e-04 0.0000e+00 1.0000e+00
      255  1    3    3    0    0 +1.4815655246e+02 +1.6150192876e+01 -2.1659356585e+02 2.9111675585e+02 1.2500000000e+02 0.0000e+00 0.0000e+00
      -11  1    4    4    0    0 -2.3295658374e-01 -1.2887034946e-02 +3.6822278385e-01 4.3591642002e-01 5.1100000000e-04 0.0000e+00 -1.0000e+00
      255  1    4    4    0    0 -1.4795174010e+02 -1.6223555922e+01 +2.1469075526e+02 2.8960324853e+02 1.2500000000e+02 0.0000e+00 0.0000e+00
<mgrwt>
<rscale>  0 0.58131471E+03</rscale>
<asrwt>0</asrwt>
<pdfrwt beam="1">  1        2 0.44844993E-01 0.58131471E+03</pdfrwt>
<pdfrwt beam="2">  1       -2 0.44588407E-01 0.58131471E+03</pdfrwt>
<totfact> 0.54501353E+02</totfact>
</mgrwt>
</event>
<event>
 8      1 +1.6198320e-01 6.09805300e+02 7.81860800e-03 9.88526900e-02
       -2 -1    0    0    0  501 -0.0000000000e+00 +0.0000000000e+00 +5.7617673853e+01 5.7617673909e+01 2.5500000000e-03 0.0000e+00 -1.0000e+00
        2 -1    0    0  501    0 +0.0000000000e+00 -0.0000000000e+00 -1.6134916697e+03 1.6134916697e+03 2.5500000000e-03 0.0000e+00 1.0000e+00
  1000101  2    1    2    0    0 -1.1828781812e+02 +4.7862492952e+01 -1.0092663219e+02 2.0522917914e+02 1.2509997896e+02 1.7478e+02 0.0000e+00
 -1000101  2    1    2    0    0 +1.1828781812e+02 -4.7862492952e+01 -1.4549473637e+03 1.4658801645e+03 1.2509995782e+02 1.4448e+01 0.0000e+00
       11  1    3    3    0    0 -2.0910327642e-01 +3.2570103556e-02 -1.7826851685e-01 2.7670366292e-01 5.1100000000e-04 0.0000e+00 1.0000e+00
      255  1    3    3    0    0 -1.1807871485e+02 +4.7829922848e+01 -1.0074836368e+02 2.0495247547e+02 1.2500000000e+02 0.0000e+00 0.0000e+00
      -11  1    4    4    0    0 +3.5926146805e-02 -1.0520048272e-01 -1.4029855161e+00 1.4073828367e+00 5.1100000000e-04 0.0000e+00 -1.0000e+00
      255  1    4    4    0    0 +1.1825189198e+02 -4.7757292469e+01 -1.4535443782e+03 1.4644727817e+03 1.2500000000e+02 0.0000e+00 0.0000e+00
<mgrwt>
<rscale>  0 0.60980534E+03</rscale>
<asrwt>0</asrwt>
<pdfrwt beam="1">  1        2 0.24822945E+00 0.60980534E+03</pdfrwt>
<pdfrwt beam="2">  1       -2 0.88642588E-02 0.60980534E+03</pdfrwt>
<totfact> 0.93410315E+02</totfact>
</mgrwt>
</event>
<event>
 8      1 +1.6198320e-01 2.88770900e+02 7.81860800e-03 1.09099300e-01
        1 -1    0    0  501    0 +0.0000000000e+00 +0.0000000000e+00 +7.4707549736e+02 7.4707549738e+02 5.0400000000e-03 0.0000e+00 1.0000e+00
       -1 -1    0    0    0  501 -0.0000000000e+00 -0.0000000000e+00 -2.7905014778e+01 2.7905015234e+01 5.0400000000e-03 0.0000e+00 -1.0000e+00
  1000101  2    1    2    0    0 -2.2126484609e+01 -3.3333840268e+01 +5.2052847446e+02 5.3684321128e+02 1.2510001816e+02 1.4823e+02 0.0000e+00
 -1000101  2    1    2    0    0 +2.2126484609e+01 +3.3333840268e+01 +1.9864200812e+02 2.3813730133e+02 1.2509996270e+02 9.1260e+01 0.0000e+00
       11  1    3    3    0    0 -6.4957886227e-02 +5.4564125509e-02 +2.1703116538e-01 2.3302265693e-01 5.1100000000e-04 0.0000e+00 1.0000e+00
      255  1    3    3    0    0 -2.2061526722e+01 -3.3388404394e+01 +5.2031144330e+02 5.3661018863e+02 1.2500000000e+02 0.0000e+00 0.0000e+00
      -11  1    4    4    0    0 -5.7285058597e-02 +7.8826042967e-02 +8.6155001061e-02 1.3006947496e-01 5.1100000000e-04 0.0000e+00 -1.0000e+00
      255  1    4    4    0    0 +2.2183769667e+01 +3.3255014225e+01 +1.9855585312e+02 2.3800723186e+02 1.2500000000e+02 0.0000e+00 0.0000e+00
<mgrwt>
<rscale>  0 0.28877086E+03</rscale>
<asrwt>0</asrwt>
<pdfrwt beam="1">  1        1 0.11493468E+00 0.28877086E+03</pdfrwt>
<pdfrwt beam="2">  1       -1 0.42930797E-02 0.28877086E+03</pdfrwt>
<totfact> 0.56570092E+03</totfact>
</mgrwt>
</event>
<event>
 8      1 +1.6198320e-01 2.94966700e+02 7.81860800e-03 1.08778400e-01
        2 -1    0    0  501    0 +0.0000000000e+00 +0.0000000000e+00 +2.4340283645e+03 2.4340283645e+03 2.5500000000e-03 0.0000e+00 1.0000e+00
       -2 -1    0    0    0  501 -0.0000000000e+00 -0.0000000000e+00 -8.9363552725e+00 8.9363556363e+00 2.5500000000e-03 0.0000e+00 -1.0000e+00
  1000101  2    1    2    0    0 +4.9147512161e+00 +4.2478841944e+01 +6.7116899297e+02 6.8406608458e+02 1.2509989671e+02 4.9340e+01 0.0000e+00
 -1000101  2    1    2    0    0 -4.9147512161e+00 -4.2478841944e+01 +1.7539230162e+03 1.7588986355e+03 1.2509938615e+02 1.2067e+02 0.0000e+00
       11  1    3    3    0    0 -1.6770260992e-02 +1.3321226098e-01 +8.2583633812e-01 8.3667954834e-01 5.1100000000e-04 0.0000e+00 1.0000e+00
      255  1    3    3    0    0 +4.9315214771e+00 +4.2345629683e+01 +6.7034315663e+02 6.8322940503e+02 1.2500000000e+02 0.0000e+00 0.0000e+00
      -11  1    4    4    0    0 +8.9713983614e-03 -5.7450077641e-02 +2.1204505941e-01 2.1987352217e-01 5.1100000000e-04 0.0000e+00 -1.0000e+00
      255  1    4    4    0    0 -4.9237226145e+00 -4.2421391867e+01 +1.7537109712e+03 1.7586787620e+03 1.2500000000e+02 0.0000e+00 0.0000e+00
<mgrwt>
<rscale>  0 0.29496673E+03</rscale>
<asrwt>0</asrwt>
<pdfrwt beam="1">  1        2 0.37446547E+00 0.29496673E+03</pdfrwt>
<pdfrwt beam="2">  1       -2 0.13748255E-02 0.29496673E+03</pdfrwt>
<totfact> 0.58393042E+03</totfact>
</mgrwt>
</event>
<event>
 8      1 +1.6198320e-01 3.00408000e+02 7.81860800e-03 1.08503700e-01
        2 -1    0    0  501    0 +0.0000000000e+00 +0.0000000000e+00 +3.8488270264e+02 3.8488270265e+02 2.5500000000e-03 0.0000e+00 1.0000e+00
       -2 -1    0    0    0  501 -0.0000000000e+00 -0.0000000000e+00 -5.8618480319e+01 5.8618480374e+01 2.5500000000e-03 0.0000e+00 -1.0000e+00
  1000101  2    1    2    0    0 +6.6779925806e+01 +2.2143597857e+00 +9.0106689644e+01 1.6802882238e+02 1.2509999101e+02 1.9105e+02 0.0000e+00
 -1000101  2    1    2    0    0 -6.6779925806e+01 -2.2143597857e+00 +2.3615753268e+02 2.7547236065e+02 1.2510067690e+02 3.1340e+01 0.0000e+00
       11  1    3    3    0    0 +1.0089909855e-01 +3.6254913730e-02 +1.8614632370e-01 2.1481564610e-01 5.1100000000e-04 0.0000e+00 1.0000e+00
      255  1    3    3    0    0 +6.6679026708e+01 +2.1781048720e+00 +8.9920543320e+01 1.6781400673e+02 1.2500000000e+02 0.0000e+00 0.0000e+00
      -11  1    4    4    0    0 -1.4540987715e-02 +7.0700115273e-02 +3.8872101819e-02 8.1983218067e-02 5.1100000000e-04 0.0000e+00 -1.0000e+00
      255  1    4    4    0    0 -6.6765384819e+01 -2.2850599010e+00 +2.3611866057e+02 2.7539037743e+02 1.2500000000e+02 0.0000e+00 0.0000e+00
<mgrwt>
<rscale>  0 0.30040798E+03</rscale>
<asrwt>0</asrwt>
<pdfrwt beam="1">  1        2 0.59212723E-01 0.30040798E+03</pdfrwt>
<pdfrwt beam="2">  1       -2 0.90182279E-02 0.30040798E+03</pdfrwt>
<totfact> 0.65020768E+03</totfact>
</mgrwt>
</event>
<event>
 8      1 +1.6198320e-01 3.55855700e+02 7.81860800e-03 1.06023700e-01
       -1 -1    0    0    0  501 -0.0000000000e+00 +0.0000000000e+00 +3.9492638542e+01 3.9492638864e+01 5.0400000000e-03 0.0000e+00 -1.0000e+00
        1 -1    0    0  501    0 +0.0000000000e+00 -0.0000000000e+00 -8.0162564832e+02 8.0162564834e+02 5.0400000000e-03 0.0000e+00 1.0000e+00
  1000101  2    1    2    0    0 -1.2156208183e+02 +3.2860862082e+01 -4.1012060208e+02 4.4688490202e+02 1.2510008556e+02 4.8922e+00 0.0000e+00
 -1000101  2    1    2    0    0 +1.2156208183e+02 -3.2860862082e+01 -3.5201240770e+02 3.9423338519e+02 1.2510016316e+02 1.1833e+02 0.0000e+00
       11  1    3    3    0    0 -4.1012655263e-02 -7.4002655480e-02 -1.7855803672e-01 1.9758963665e-01 5.1100000000e-04 0.0000e+00 1.0000e+00
      255  1    3    3    0    0 -1.2152106918e+02 +3.2934864737e+01 -4.0994204404e+02 4.4668731238e+02 1.2500000000e+02 0.0000e+00 0.0000e+00
      -11  1    4    4    0    0 +9.9044912192e-02 +2.8002423641e-02 -7.6361618074e-02 1.2816157067e-01 5.1100000000e-04 0.0000e+00 -1.0000e+00
      255  1    4    4    0    0 +1.2146303692e+02 -3.2888864505e+01 -3.5193604609e+02 3.9410522362e+02 1.2500000000e+02 0.0000e+00 0.0000e+00
<mgrwt>
<rscale>  0 0.35585566E+03</rscale>
<asrwt>0</asrwt>
<pdfrwt beam="1">  1        1 0.12332701E+00 0.35585566E+03</pdfrwt>
<pdfrwt beam="2">  1       -1 0.60757911E-02 0.35585566E+03</pdfrwt>
<totfact> 0.30200669E+03</totfact>
</mgrwt>
</event>
<event>
 8      1 +1.6198320e-01 3.01341400e+02 7.81860800e-03 1.08457200e-01
        2 -1    0    0  501    0 +0.0000000000e+00 +0.0000000000e+00 +1.8318374207e+03 1.8318374207e+03 2.5500000000e-03 0.0000e+00 1.0000e+00
       -2 -1    0    0    0  501 -0.0000000000e+00 -0.0000000000e+00 -1.2392837604e+01 1.2392837866e+01 2.5500000000e-03 0.0000e+00 -1.0000e+00
  1000101  2    1    2    0    0 +8.2155376386e+01 +7.3414044336e-01 +8.0344979390e+02 8.1727089256e+02 1.2510034244e+02 2.1911e+02 0.0000e+00
 -1000101  2    1    2    0    0 -8.2155376386e+01 -7.3414044336e-01 +1.0159947892e+03 1.0269593660e+03 1.2510029146e+02 1.7844e+01 0.0000e+00
       11  1    3    3    0    0 +1.5203301261e-01 +6.5622661619e-02 +1.0415691598e+00 1.0546501536e+00 5.1100000000e-04 0.0000e+00 1.0000e+00
      255  1    3    3    0    0 +8.2003343373e+01 +6.6851778174e-01 +8.0240822474e+02 8.1621624241e+02 1.2500000000e+02 0.0000e+00 0.0000e+00
      -11  1    4    4    0    0 -2.8068866381e-02 +1.2167902457e-02 +1.3201095086e+00 1.3204640453e+00 5.1100000000e-04 0.0000e+00 -1.0000e+00
      255  1    4    4    0    0 -8.2127307520e+01 -7.4630834582e-01 +1.0146746797e+03 1.0256389020e+03 1.2500000000e+02 0.0000e+00 0.0000e+00
<mgrwt>
<rscale>  0 0.30134143E+03</rscale>
<asrwt>0</asrwt>
<pdfrwt beam="1">  1        2 0.28182104E+00 0.30134143E+03</pdfrwt>
<pdfrwt beam="2">  1       -2 0.19065911E-02 0.30134143E+03</pdfrwt>
<totfact> 0.75618140E+03</totfact>
</mgrwt>
</event>
<event>
 8      1 +1.6198320e-01 2.92320700e+02 7.81860800e-03 1.08914400e-01
        2 -1    0    0  501    0 +0.0000000000e+00 +0.0000000000e+00 +4.4365183338e+02 4.4365183339e+02 2.5500000000e-03 0.0000e+00 1.0000e+00
       -2 -1    0    0    0  501 -0.0000000000e+00 -0.0000000000e+00 -4.8152270186e+01 4.8152270254e+01 2.5500000000e-03 0.0000e+00 -1.0000e+00
  1000101  2    1    2    0    0 +6.9969314931e+01 +2.8411925701e+01 +2.0303592457e+02 2.5015309207e+02 1.2510012092e+02 2.7121e+01 0.0000e+00
 -1000101  2    1    2    0    0 -6.9969314931e+01 -2.8411925701e+01 +1.9246363863e+02 2.4165101157e+02 1.2510002656e+02 6.8776e+01 0.0000e+00
       11  1    3    3    0    0 +5.1144079791e-02 +8.9213179904e-02 +3.0625293497e-01 3.2305700684e-01 5.1100000000e-04 0.0000e+00 1.0000e+00
      255  1    3    3    0    0 +6.9918170851e+01 +2.8322712521e+01 +2.0272967163e+02 2.4983003506e+02 1.2500000000e+02 0.0000e+00 0.0000e+00
      -11  1    4    4    0    0 -1.6933726105e-01 -4.6158893577e-02 +2.1972443811e-01 2.8122027178e-01 5.1100000000e-04 0.0000e+00 -1.0000e+00
      255  1    4    4    0    0 -6.9799977670e+01 -2.8365766808e+01 +1.9224391419e+02 2.4136979130e+02 1.2500000000e+02 0.0000e+00 0.0000e+00
<mgrwt>
<rscale>  0 0.29232067E+03</rscale>
<asrwt>0</asrwt>
<pdfrwt beam="1">  1        2 0.68254128E-01 0.29232067E+03</pdfrwt>
<pdfrwt beam="2">  1       -2 0.74080416E-02 0.29232067E+03</pdfrwt>
<totfact> 0.75701272E+03</totfact>
</mgrwt>
</event>
<event>
 8      1 +1.6198320e-01 4.57954800e+02 7.81860800e-03 1.02537600e-01
       -2 -1    0    0    0  501 -0.0000000000e+00 +0.0000000000e+00 +8.2381657231e+02 8.2381657232e+02 2.5500000000e-03 0.0000e+00 -1.0000e+00
        2 -1    0    0  501    0 +0.0000000000e+00 -0.0000000000e+00 -6.3643585470e+01 6.3643585521e+01 2.5500000000e-03 0.0000e+00 1.0000e+00
  1000101  2    1    2    0    0 -4.1151147941e+01 -1.4725948046e+02 +6.0442754769e+02 6.3589421329e+02 1.2510003407e+02 8.6585e+01 0.0000e+00
 -1000101  2    1    2    0    0 +4.1151147941e+01 +1.4725948046e+02 +1.5574543915e+02 2.5156594455e+02 1.2510000431e+02 1.1859e+02 0.0000e+00
       11  1    3    3    0    0 -8.5626986380e-03 +2.5106665090e-02 +1.9443927662e-02 3.2893645046e-02 5.1100000000e-04 0.0000e+00 1.0000e+00
      255  1    3    3    0    0 -4.1142585242e+01 -1.4728458712e+02 +6.0440810377e+02 6.3586131965e+02 1.2500000000e+02 0.0000e+00 0.0000e+00
      -11  1    4    4    0    0 -5.4245343135e-02 +9.8733172391e-02 +1.6972784956e-01 2.0371205320e-01 5.1100000000e-04 0.0000e+00 -1.0000e+00
      255  1    4    4    0    0 +4.1205393284e+01 +1.4716074728e+02 +1.5557571130e+02 2.5136223249e+02 1.2500000000e+02 0.0000e+00 0.0000e+00
<mgrwt>
<rscale>  0 0.45795476E+03</rscale>
<asrwt>0</asrwt>
<pdfrwt beam="1">  1        2 0.97913217E-02 0.45795476E+03</pdfrwt>
<pdfrwt beam="2">  1       -2 0.12674100E+00 0.45795476E+03</pdfrwt>
<totfact> 0.32033991E+02</totfact>
</mgrwt>
</event>
<event>
 8      1 +1.6198320e-01 2.78377900e+02 7.81860800e-03 1.09657800e-01
        2 -1    0    0  501    0 +0.0000000000e+00 +0.0000000000e+00 +2.3282869445e+03 2.3282869445e+03 2.5500000000e-03 0.0000e+00 1.0000e+00
       -2 -1    0    0    0  501 -0.0000000000e+00 -0.0000000000e+00 -8.3209523364e+00 8.3209527272e+00 2.5500000000e-03 0.0000e+00 -1.0000e+00
  1000101  2    1    2    0    0 -3.7967678010e+01 +3.2712377136e+01 +1.4521874860e+03 1.4584272869e+03 1.2510001002e+02 1.2345e+02 0.0000e+00
 -1000101  2    1    2    0    0 +3.7967678010e+01 -3.2712377136e+01 +8.6777850614e+02 8.7818061030e+02 1.2509997760e+02 2.0075e+02 0.0000e+00
       11  1    3    3    0    0 -4.8098901493e-02 -2.3274559497e-02 +2.0088347547e+00 2.0095453571e+00 5.1100000000e-04 0.0000e+00 1.0000e+00
      255  1    3    3    0    0 -3.7919579108e+01 +3.2735651696e+01 +1.4501786513e+03 1.4564177416e+03 1.2500000000e+02 0.0000e+00 0.0000e+00
      -11  1    4    4    0    0 +5.7223517447e-02 -8.6948890470e-02 +3.2961816786e-01 3.4566318608e-01 5.1100000000e-04 0.0000e+00 -1.0000e+00
      255  1    4    4    0    0 +3.7910454492e+01 -3.2625428246e+01 +8.6744888797e+02 8.7783494711e+02 1.2500000000e+02 0.0000e+00 0.0000e+00
<mgrwt>
<rscale>  0 0.27837791E+03</rscale>
<asrwt>0</asrwt>
<pdfrwt beam="1">  1        2 0.35819815E+00 0.27837791E+03</pdfrwt>
<pdfrwt beam="2">  1       -2 0.12801460E-02 0.27837791E+03</pdfrwt>
<totfact> 0.73957454E+03</totfact>
</mgrwt>
</event>
<event>
 8      1 +1.6198320e-01 2.59142700e+02 7.81860800e-03 1.10765900e-01
       -2 -1    0    0    0  501 -0.0000000000e+00 +0.0000000000e+00 +1.7879100525e+01 1.7879100707e+01 2.5500000000e-03 0.0000e+00 -1.0000e+00
        2 -1    0    0  501    0 +0.0000000000e+00 -0.0000000000e+00 -9.3901483217e+02 9.3901483217e+02 2.5500000000e-03 0.0000e+00 1.0000e+00
  1000101  2    1    2    0    0 -9.3526085492e+00 -3.2342042713e+01 -4.5209160758e+02 4.7028750711e+02 1.2510011468e+02 1.6086e+02 0.0000e+00
 -1000101  2    1    2    0    0 +9.3526085492e+00 +3.2342042713e+01 -4.6904412406e+02 4.8660642576e+02 1.2509973724e+02 1.4084e+02 0.0000e+00
       11  1    3    3    0    0 +7.1746857459e-02 -6.3376129415e-02 -5.5012762408e-01 5.5839485065e-01 5.1100000000e-04 0.0000e+00 1.0000e+00
      255  1    3    3    0    0 -9.4243554067e+00 -3.2278666584e+01 -4.5154147995e+02 4.6972911226e+02 1.2500000000e+02 0.0000e+00 0.0000e+00
      -11  1    4    4    0    0 +1.0369787356e-01 +5.5480748603e-02 -4.2398967427e-01 4.3999871302e-01 5.1100000000e-04 0.0000e+00 -1.0000e+00
      255  1    4    4    0    0 +9.2489106757e+00 +3.2286561965e+01 -4.6862013439e+02 4.8616642705e+02 1.2500000000e+02 0.0000e+00 0.0000e+00
<mgrwt>
<rscale>  0 0.25914275E+03</rscale>
<asrwt>0</asrwt>
<pdfrwt beam="1">  1        2 0.14446378E+00 0.25914275E+03</pdfrwt>
<pdfrwt beam="2">  1       -2 0.27506316E-02 0.25914275E+03</pdfrwt>
<totfact> 0.13744561E+04</totfact>
</mgrwt>
</event>
<event>
 8      1 +1.6198320e-01 3.73561900e+02 7.81860800e-03 1.05333900e-01
        2 -1    0    0  501    0 +0.0000000000e+00 +0.0000000000e+00 +2.8283657717e+03 2.8283657717e+03 2.5500000000e-03 0.0000e+00 1.0000e+00
       -2 -1    0    0    0  501 -0.0000000000e+00 -0.0000000000e+00 -1.2334726977e+01 1.2334727240e+01 2.5500000000e-03 0.0000e+00 -1.0000e+00
  1000101  2    1    2    0    0 -5.2195675294e+01 +1.2636656241e+02 +1.2306184578e+03 1.2444937368e+03 1.2509986213e+02 4.0107e+01 0.0000e+00
 -1000101  2    1    2    0    0 +5.2195675294e+01 -1.2636656241e+02 +1.5854125869e+03 1.5962067622e+03 1.2510020099e+02 3.1526e+02 0.0000e+00
       11  1    3    3    0    0 -2.9352486103e-03 +1.7635500149e-01 +8.0558086007e-01 8.2466386211e-01 5.1100000000e-04 0.0000e+00 1.0000e+00
      255  1    3    3    0    0 -5.2192740046e+01 +1.2619020741e+02 +1.2298128770e+03 1.2436690729e+03 1.2500000000e+02 0.0000e+00 0.0000e+00
      -11  1    4    4    0    0 +6.9437124240e-02 -1.0832492483e-01 +5.4362048883e-01 5.5864058263e-01 5.1100000000e-04 0.0000e+00 -1.0000e+00
      255  1    4    4    0    0 +5.2126238170e+01 -1.2625823749e+02 +1.5848689664e+03 1.5956481216e+03 1.2500000000e+02 0.0000e+00 0.0000e+00
<mgrwt>
<rscale>  0 0.37356188E+03</rscale>
<asrwt>0</asrwt>
<pdfrwt beam="1">  1        2 0.43513328E+00 0.37356188E+03</pdfrwt>
<pdfrwt beam="2">  1       -2 0.18976500E-02 0.37356188E+03</pdfrwt>
<totfact> 0.21697482E+03</totfact>
</mgrwt>
</event>
<event>
 8      1 +1.6198320e-01 2.89794000e+02 7.81860800e-03 1.09045700e-01
       -2 -1    0    0    0  501 -0.0000000000e+00 +0.0000000000e+00 +1.2650150834e+01 1.2650151091e+01 2.5500000000e-03 0.0000e+00 -1.0000e+00
        2 -1    0    0  501    0 +0.0000000000e+00 -0.0000000000e+00 -1.6596751248e+03 1.6596751248e+03 2.5500000000e-03 0.0000e+00 1.0000e+00
  1000101  2    1    2    0    0 -1.8105876288e+01 -1.9961714734e+01 -4.3132180741e+02 4.4990533431e+02 1.2510002188e+02 8.1680e+01 0.0000e+00
 -1000101  2    1    2    0    0 +1.8105876288e+01 +1.9961714734e+01 -1.2157031665e+03 1.2224199416e+03 1.2510008639e+02 3.7376e+01 0.0000e+00
       11  1    3    3    0    0 -1.1366672609e-01 -9.3774678494e-04 -4.1300529614e-01 4.2836274319e-01 5.1100000000e-04 0.0000e+00 1.0000e+00
      255  1    3    3    0    0 -1.7992209562e+01 -1.9960776987e+01 -4.3090880212e+02 4.4947697156e+02 1.2500000000e+02 0.0000e+00 0.0000e+00
      -11  1    4    4    0    0 +4.3430604986e-02 -3.9078221368e-02 -1.7977260689e-01 1.8902850616e-01 5.1100000000e-04 0.0000e+00 -1.0000e+00
      255  1    4    4    0    0 +1.8062445683e+01 +2.0000792955e+01 -1.2155233939e+03 1.2222309131e+03 1.2500000000e+02 0.0000e+00 0.0000e+00
<mgrwt>
<rscale>  0 0.28979400E+03</rscale>
<asrwt>0</asrwt>
<pdfrwt beam="1">  1        2 0.25533446E+00 0.28979400E+03</pdfrwt>
<pdfrwt beam="2">  1       -2 0.19461784E-02 0.28979400E+03</pdfrwt>
<totfact> 0.90387359E+03</totfact>
</mgrwt>
</event>
<event>
 8      1 +1.6198320e-01 2.65409200e+02 7.81860800e-03 1.10393600e-01
       -1 -1    0    0    0  501 -0.0000000000e+00 +0.0000000000e+00 +2.6089776452e+03 2.6089776452e+03 5.0400000000e-03 0.0000e+00 -1.0000e+00
        1 -1    0    0  501    0 +0.0000000000e+00 -0.0000000000e+00 -6.7499667665e+00 6.7499686481e+00 5.0400000000e-03 0.0000e+00 1.0000e+00
  1000101  2    1    2    0    0 +7.0126507099e+00 +3.4407624005e+01 +1.0353072068e+03 1.0434290309e+03 1.2510023212e+02 2.9125e+01 0.0000e+00
 -1000101  2    1    2    0    0 -7.0126507099e+00 -3.4407624005e+01 +1.5669204716e+03 1.5722985830e+03 1.2509999153e+02 1.7219e+02 0.0000e+00
       11  1    3    3    0    0 +9.7519360672e-02 +5.4708621009e-02 +1.1802301531e+00 1.1855153033e+00 5.1100000000e-04 0.0000e+00 1.0000e+00
      255  1    3    3    0    0 +6.9151313493e+00 +3.4352915384e+01 +1.0341269767e+03 1.0422435156e+03 1.2500000000e+02 0.0000e+00 0.0000e+00
      -11  1    4    4    0    0 -7.5344499683e-02 +2.9003422901e-02 +1.6661171173e+00 1.6680720913e+00 5.1100000000e-04 0.0000e+00 -1.0000e+00
      255  1    4    4    0    0 -6.9373062103e+00 -3.4436627428e+01 +1.5652543545e+03 1.5706305109e+03 1.2500000000e+02 0.0000e+00 0.0000e+00
<mgrwt>
<rscale>  0 0.26540923E+03</rscale>
<asrwt>0</asrwt>
<pdfrwt beam="1">  1        1 0.10384585E-02 0.26540923E+03</pdfrwt>
<pdfrwt beam="2">  1       -1 0.40138045E+00 0.26540923E+03</pdfrwt>
<totfact> 0.13214864E+02</totfact>
</mgrwt>
</event>
<event>
 8      1 +1.6198320e-01 2.73991900e+02 7.81860800e-03 1.09901600e-01
        1 -1    0    0  501    0 +0.0000000000e+00 +0.0000000000e+00 +1.6721737875e+01 1.6721738634e+01 5.0400000000e-03 0.0000e+00 -1.0000e+00
       -1 -1    0    0    0  501 -0.0000000000e+00 -0.0000000000e+00 -1.1223651902e+03 1.1223651902e+03 5.0400000000e-03 0.0000e+00 1.0000e+00
  1000101  2    1    2    0    0 -2.6473665907e+01 -1.2932403071e+01 -7.5001387117e+02 7.6094607196e+02 1.2510002179e+02 3.0092e+01 0.0000e+00
 -1000101  2    1    2    0    0 +2.6473665907e+01 +1.2932403071e+01 -3.5562958114e+02 3.7814085687e+02 1.2509998647e+02 1.0447e+02 0.0000e+00
       11  1    3    3    0    0 -9.9906874038e-02 -1.5590892452e-02 -1.0738515126e+00 1.0786017763e+00 5.1100000000e-04 0.0000e+00 1.0000e+00
      255  1    3    3    0    0 -2.6373759033e+01 -1.2916812179e+01 -7.4894001966e+02 7.5986747018e+02 1.2500000000e+02 0.0000e+00 0.0000e+00
      -11  1    4    4    0    0 -9.1908165073e-03 -5.1070542932e-02 -3.2476061472e-02 6.1217866295e-02 5.1100000000e-04 0.0000e+00 -1.0000e+00
      255  1    4    4    0    0 +2.6482856724e+01 +1.2983473614e+01 -3.5559710508e+02 3.7807963900e+02 1.2500000000e+02 0.0000e+00 0.0000e+00
<mgrwt>
<rscale>  0 0.27399195E+03</rscale>
<asrwt>0</asrwt>
<pdfrwt beam="1">  1        1 0.25725760E-02 0.27399195E+03</pdfrwt>
<pdfrwt beam="2">  1       -1 0.17267151E+00 0.27399195E+03</pdfrwt>
<totfact> 0.10905937E+03</totfact>
</mgrwt>
</event>
<event>
 8      1 +1.6198320e-01 7.14461800e+02 7.81860800e-03 9.69281500e-02
       -2 -1    0    0    0  501 -0.0000000000e+00 +0.0000000000e+00 +4.2201595043e+01 4.2201595120e+01 2.5500000000e-03 0.0000e+00 -1.0000e+00
        2 -1    0    0  501    0 +0.0000000000e+00 -0.0000000000e+00 -3.0239118960e+03 3.0239118960e+03 2.5500000000e-03 0.0000e+00 1.0000e+00
  1000101  2    1    2    0    0 -1.7333214929e+02 +2.0640733416e+02 -6.3992652033e+02 7.0555226447e+02 1.2510005957e+02 4.0103e+01 0.0000e+00
 -1000101  2    1    2    0    0 +1.7333214929e+02 -2.0640733416e+02 -2.3417837806e+03 2.3605612266e+03 1.2509999198e+02 1.1762e+02 0.0000e+00
       11  1    3    3    0    0 -5.7435472350e-02 +2.1625111523e-01 -4.1379726480e-01 4.7041664065e-01 5.1100000000e-04 0.0000e+00 1.0000e+00
      255  1    3    3    0    0 -1.7327471382e+02 +2.0619108304e+02 -6.3951272306e+02 7.0508184783e+02 1.2500000000e+02 0.0000e+00 0.0000e+00
      -11  1    4    4    0    0 -9.6603665872e-03 -8.5974229968e-02 -4.2435259126e-01 4.3308229441e-01 5.1100000000e-04 0.0000e+00 -1.0000e+00
      255  1    4    4    0    0 +1.7334180966e+02 -2.0632135993e+02 -2.3413594280e+03 2.3601281443e+03 1.2500000000e+02 0.0000e+00 0.0000e+00
<mgrwt>
<rscale>  0 0.71446177E+03</rscale>
<asrwt>0</asrwt>
<pdfrwt beam="1">  1        2 0.46521705E+00 0.71446177E+03</pdfrwt>
<pdfrwt beam="2">  1       -2 0.64925555E-02 0.71446177E+03</pdfrwt>
<totfact> 0.24456208E+02</totfact>
</mgrwt>
</event>
<event>
 8      1 +1.6198320e-01 2.86224100e+02 7.81860800e-03 1.09233700e-01
        2 -1    0    0  501    0 +0.0000000000e+00 +0.0000000000e+00 +1.4278802569e+02 1.4278802571e+02 2.5500000000e-03 0.0000e+00 1.0000e+00
       -2 -1    0    0    0  501 -0.0000000000e+00 -0.0000000000e+00 -1.4343679502e+02 1.4343679505e+02 2.5500000000e-03 0.0000e+00 -1.0000e+00
  1000101  2    1    2    0    0 +5.3132970936e+00 -2.2635820546e+01 -6.5826058528e+01 1.4326091780e+02 1.2509999636e+02 3.3455e+02 0.0000e+00
 -1000101  2    1    2    0    0 -5.3132970936e+00 +2.2635820546e+01 +6.5177289196e+01 1.4296390296e+02 1.2509990817e+02 1.4845e+02 0.0000e+00
       11  1    3    3    0    0 +6.8865031887e-02 +5.6353020813e-02 -6.9240893916e-02 1.1275024649e-01 5.1100000000e-04 0.0000e+00 1.0000e+00
      255  1    3    3    0    0 +5.2444320617e+00 -2.2692173567e+01 -6.5756817634e+01 1.4314816755e+02 1.2500000000e+02 0.0000e+00 0.0000e+00
      -11  1    4    4    0    0 +5.3239001700e-02 +9.8545267935e-02 +7.8704728931e-02 1.3689505693e-01 5.1100000000e-04 0.0000e+00 -1.0000e+00
      255  1    4    4    0    0 -5.3665360953e+00 +2.2537275278e+01 +6.5098584467e+01 1.4282700790e+02 1.2500000000e+02 0.0000e+00 0.0000e+00
<mgrwt>
<rscale>  0 0.28622409E+03</rscale>
<asrwt>0</asrwt>
<pdfrwt beam="1">  1        2 0.21967389E-01 0.28622409E+03</pdfrwt>
<pdfrwt beam="2">  1       -2 0.22067199E-01 0.28622409E+03</pdfrwt>
<totfact> 0.43963606E+03</totfact>
</mgrwt>
</event>
<event>
 8      1 +1.6198320e-01 3.99497400e+02 7.81860800e-03 1.04395400e-01
       -2 -1    0    0    0  501 -0.0000000000e+00 +0.0000000000e+00 +2.1143000333e+01 2.1143000487e+01 2.5500000000e-03 0.0000e+00 -1.0000e+00
        2 -1    0    0  501    0 +0.0000000000e+00 -0.0000000000e+00 -1.8871281052e+03 1.8871281052e+03 2.5500000000e-03 0.0000e+00 1.0000e+00
  1000101  2    1    2    0    0 +3.6803506214e+01 -8.8884787577e+01 -3.4807762623e+02 3.8218194345e+02 1.2509996196e+02 7.9088e+01 0.0000e+00
 -1000101  2    1    2    0    0 -3.6803506214e+01 +8.8884787577e+01 -1.5179074786e+03 1.5260891622e+03 1.2510001550e+02 1.6657e+01 0.0000e+00
       11  1    3    3    0    0 +6.3991511794e-02 -1.8738580551e-01 -5.0266199323e-01 5.4025706311e-01 5.1100000000e-04 0.0000e+00 1.0000e+00
      255  1    3    3    0    0 +3.6739514703e+01 -8.8697401772e+01 -3.4757496424e+02 3.8164168639e+02 1.2500000000e+02 0.0000e+00 0.0000e+00
      -11  1    4    4    0    0 +1.6930242693e-02 -4.0213494202e-02 -7.9141501479e-01 7.9261702290e-01 5.1100000000e-04 0.0000e+00 -1.0000e+00
      255  1    4    4    0    0 -3.6820436457e+01 +8.8925001071e+01 -1.5171160636e+03 1.5252965452e+03 1.2500000000e+02 0.0000e+00 0.0000e+00
<mgrwt>
<rscale>  0 0.39949744E+03</rscale>
<asrwt>0</asrwt>
<pdfrwt beam="1">  1        2 0.29032727E+00 0.39949744E+03</pdfrwt>
<pdfrwt beam="2">  1       -2 0.32527708E-02 0.39949744E+03</pdfrwt>
<totfact> 0.31849694E+03</totfact>
</mgrwt>
</event>
<event>
 8      1 +1.6198320e-01 2.72578300e+02 7.81860800e-03 1.09981300e-01
       -2 -1    0    0    0  501 -0.0000000000e+00 +0.0000000000e+00 +3.8550302439e+02 3.8550302440e+02 2.5500000000e-03 0.0000e+00 -1.0000e+00
        2 -1    0    0  501    0 +0.0000000000e+00 -0.0000000000e+00 -4.8183109538e+01 4.8183109605e+01 2.5500000000e-03 0.0000e+00 1.0000e+00
  1000101  2    1    2    0    0 +2.6695591194e+01 -1.1687872897e+01 +9.6175218362e+01 1.6046467100e+02 1.2509986830e+02 8.0973e+00 0.0000e+00
 -1000101  2    1    2    0    0 -2.6695591194e+01 +1.1687872897e+01 +2.4114469649e+02 2.7322146301e+02 1.2509972918e+02 2.1186e+02 0.0000e+00
       11  1    3    3    0    0 +7.7918813069e-02 +5.8480158994e-02 +2.2427477044e-02 9.9972612619e-02 5.1100000000e-04 0.0000e+00 1.0000e+00
      255  1    3    3    0    0 +2.6617672380e+01 -1.1746353056e+01 +9.6152790885e+01 1.6036469838e+02 1.2500000000e+02 0.0000e+00 0.0000e+00
      -11  1    4    4    0    0 -5.3226656309e-02 +8.6461661220e-03 +4.0585483502e-01 4.0942183791e-01 5.1100000000e-04 0.0000e+00 -1.0000e+00
      255  1    4    4    0    0 -2.6642364537e+01 +1.1679226731e+01 +2.4073884166e+02 2.7281204117e+02 1.2500000000e+02 0.0000e+00 0.0000e+00
<mgrwt>
<rscale>  0 0.27257832E+03</rscale>
<asrwt>0</asrwt>
<pdfrwt beam="1">  1        2 0.74127859E-02 0.27257832E+03</pdfrwt>
<pdfrwt beam="2">  1       -2 0.59308159E-01 0.27257832E+03</pdfrwt>
<totfact> 0.25326048E+03</totfact>
</mgrwt>
</event>
<event>
 8      1 +1.6198320e-01 3.10644100e+02 7.81860800e-03 1.08003800e-01
        4 -1    0    0  501    0 +0.0000000000e+00 +0.0000000000e+00 +1.7343944712e+01 1.7390380047e+01 1.2700000000e+00 0.0000e+00 1.0000e+00
       -4 -1    0    0    0  501 -0.0000000000e+00 -0.0000000000e+00 -1.3890658985e+03 1.3890664790e+03 1.2700000000e+00 0.0000e+00 -1.0000e+00
  1000101  2    1    2    0    0 -1.7792083033e+01 -5.3237319813e+01 -1.0162231561e+03 1.0254316957e+03 1.2509951690e+02 9.9008e+01 0.0000e+00
 -1000101  2    1    2    0    0 +1.7792083033e+01 +5.3237319813e+01 -3.5549879765e+02 3.8102516337e+02 1.2509999821e+02 5.8374e+01 0.0000e+00
       11  1    3    3    0    0 -4.5122639727e-02 +3.5154525816e-02 -1.0643022502e+00 1.0658383715e+00 5.1100000000e-04 0.0000e+00 1.0000e+00
      255  1    3    3    0    0 -1.7746960394e+01 -5.3272474339e+01 -1.0151588539e+03 1.0243658574e+03 1.2500000000e+02 0.0000e+00 0.0000e+00
      -11  1    4    4    0    0 -2.0880899701e-02 +1.3603944740e-01 -2.7739898791e-01 3.0966627655e-01 5.1100000000e-04 0.0000e+00 -1.0000e+00
      255  1    4    4    0    0 +1.7812963933e+01 +5.3101280366e+01 -3.5522139866e+02 3.8071549709e+02 1.2500000000e+02 0.0000e+00 0.0000e+00
<mgrwt>
<rscale>  0 0.31064413E+03</rscale>
<asrwt>0</asrwt>
<pdfrwt beam="1">  1        4 0.26719169E-02 0.31064413E+03</pdfrwt>
<pdfrwt beam="2">  1       -4 0.21370598E+00 0.31064413E+03</pdfrwt>
<totfact> 0.14434452E+02</totfact>
</mgrwt>
</event>
<event>
 8      1 +1.6198320e-01 4.20274800e+02 7.81860800e-03 1.03697700e-01
       -3 -1    0    0    0  501 -0.0000000000e+00 +0.0000000000e+00 +1.8245249430e+02 1.8245252225e+02 1.0100000000e-01 0.0000e+00 1.0000e+00
        3 -1    0    0  501    0 +0.0000000000e+00 -0.0000000000e+00 -2.4202308498e+02 2.4202310606e+02 1.0100000000e-01 0.0000e+00 -1.0000e+00
  1000101  2    1    2    0    0 +7.4853337030e+01 +1.5057668508e+02 -1.4422736527e+01 2.1008183641e+02 1.2509997006e+02 3.6912e+01 0.0000e+00
 -1000101  2    1    2    0    0 -7.4853337030e+01 -1.5057668508e+02 -4.5147854161e+01 2.1439379190e+02 1.2509999647e+02 5.3669e+01 0.0000e+00
       11  1    3    3    0    0 +4.9507025126e-02 +2.5695638355e-01 -2.9625237175e-02 2.6335421846e-01 5.1100000000e-04 0.0000e+00 1.0000e+00
      255  1    3    3    0    0 +7.4803830005e+01 +1.5031972869e+02 -1.4393111290e+01 2.0981848219e+02 1.2500000000e+02 0.0000e+00 0.0000e+00
      -11  1    4    4    0    0 -8.2973762544e-02 -2.9719330553e-02 -9.2265344343e-02 1.2759717382e-01 5.1100000000e-04 0.0000e+00 -1.0000e+00
      255  1    4    4    0    0 -7.4770363268e+01 -1.5054696574e+02 -4.5055588817e+01 2.1426619472e+02 1.2500000000e+02 0.0000e+00 0.0000e+00
<mgrwt>
<rscale>  0 0.42027480E+03</rscale>
<asrwt>0</asrwt>
<pdfrwt beam="1">  1        3 0.37234325E-01 0.42027480E+03</pdfrwt>
<pdfrwt beam="2">  1       -3 0.28069618E-01 0.42027480E+03</pdfrwt>
<totfact> 0.22618827E+02</totfact>
</mgrwt>
</event>
<event>
 8      1 +1.6198320e-01 2.78287800e+02 7.81860800e-03 1.09662800e-01
        2 -1    0    0  501    0 +0.0000000000e+00 +0.0000000000e+00 +8.7312987937e+02 8.7312987937e+02 2.5500000000e-03 0.0000e+00 1.0000e+00
       -2 -1    0    0    0  501 -0.0000000000e+00 -0.0000000000e+00 -2.2174275580e+01 2.2174275726e+01 2.5500000000e-03 0.0000e+00 -1.0000e+00
  1000101  2    1    2    0    0 +5.1831372615e+01 +2.8775902539e+01 +3.8038459792e+02 4.0479253491e+02 1.2510000091e+02 9.2801e+01 0.0000e+00
 -1000101  2    1    2    0    0 -5.1831372615e+01 -2.8775902539e+01 +4.7057100587e+02 4.9051162019e+02 1.2510009682e+02 1.4008e+01 0.0000e+00
       11  1    3    3    0    0 +4.6191490617e-02 -7.8622462080e-02 +2.3870674767e-01 2.5553144201e-01 5.1100000000e-04 0.0000e+00 1.0000e+00
      255  1    3    3    0    0 +5.1785181124e+01 +2.8854525001e+01 +3.8014589117e+02 4.0453700347e+02 1.2500000000e+02 0.0000e+00 0.0000e+00
      -11  1    4    4    0    0 -1.0947901073e-01 +5.1013429517e-02 +4.0251876760e-01 4.2024950110e-01 5.1100000000e-04 0.0000e+00 -1.0000e+00
      255  1    4    4    0    0 -5.1721893604e+01 -2.8826915968e+01 +4.7016848710e+02 4.9009137069e+02 1.2500000000e+02 0.0000e+00 0.0000e+00
<mgrwt>
<rscale>  0 0.27828778E+03</rscale>
<asrwt>0</asrwt>
<pdfrwt beam="1">  1        2 0.13432765E+00 0.27828778E+03</pdfrwt>
<pdfrwt beam="2">  1       -2 0.34114276E-02 0.27828778E+03</pdfrwt>
<totfact> 0.11026037E+04</totfact>
</mgrwt>
</event>
<event>
 8      1 +1.6198320e-01 4.11555200e+02 7.81860800e-03 1.03985000e-01
        2 -1    0    0  501    0 +0.0000000000e+00 +0.0000000000e+00 +8.2870615512e+02 8.2870615512e+02 2.5500000000e-03 0.0000e+00 1.0000e+00
       -2 -1    0    0    0  501 -0.0000000000e+00 -0.0000000000e+00 -5.1097026212e+01 5.1097026275e+01 2.5500000000e-03 0.0000e+00 -1.0000e+00
  1000101  2    1    2    0    0 +1.5638737550e+02 -3.4760615076e+01 +3.2022295604e+02 3.7928605206e+02 1.2509938503e+02 2.1393e+01 0.0000e+00
 -1000101  2    1    2    0    0 -1.5638737550e+02 +3.4760615076e+01 +4.5738617287e+02 5.0051712934e+02 1.2509985634e+02 1.0415e+02 0.0000e+00
       11  1    3    3    0    0 -3.2570192485e-02 +1.5545206051e-03 +8.4071729701e-02 9.0175112031e-02 5.1100000000e-04 0.0000e+00 1.0000e+00
      255  1    3    3    0    0 +1.5641994569e+02 -3.4762169596e+01 +3.2013888431e+02 3.7919587695e+02 1.2500000000e+02 0.0000e+00 0.0000e+00
      -11  1    4    4    0    0 +8.1099131225e-03 -1.3805540956e-02 -5.0862331610e-03 1.6807573941e-02 5.1100000000e-04 0.0000e+00 -1.0000e+00
      255  1    4    4    0    0 -1.5639548541e+02 +3.4774420617e+01 +4.5739125910e+02 5.0050032177e+02 1.2500000000e+02 0.0000e+00 0.0000e+00
<mgrwt>
<rscale>  0 0.41155520E+03</rscale>
<asrwt>0</asrwt>
<pdfrwt beam="1">  1        2 0.12749325E+00 0.41155520E+03</pdfrwt>
<pdfrwt beam="2">  1       -2 0.78610812E-02 0.41155520E+03</pdfrwt>
<totfact> 0.33102714E+03</totfact>
</mgrwt>
</event>
<event>
 8      1 +1.6198320e-01 2.76054900e+02 7.81860800e-03 1.09786300e-01
       -2 -1    0    0    0  501 -0.0000000000e+00 +0.0000000000e+00 +1.5840178388e+03 1.5840178388e+03 2.5500000000e-03 0.0000e+00 -1.0000e+00
        2 -1    0    0  501    0 +0.0000000000e+00 -0.0000000000e+00 -1.2027377648e+01 1.2027377918e+01 2.5500000000e-03 0.0000e+00 1.0000e+00
  1000101  2    1    2    0    0 +3.2326098920e+01 +4.9696569858e+00 +1.0651876054e+03 1.0730071433e+03 1.2510004342e+02 5.3189e+01 0.0000e+00
 -1000101  2    1    2    0    0 -3.2326098920e+01 -4.9696569858e+00 +5.0680285576e+02 5.2303807336e+02 1.2510002963e+02 2.1785e+02 0.0000e+00
       11  1    3    3    0    0 -2.9573926476e-02 +8.6920280184e-02 +6.5767276116e-01 6.6405080689e-01 5.1100000000e-04 0.0000e+00 1.0000e+00
      255  1    3    3    0    0 +3.2355672847e+01 +4.8827367056e+00 +1.0645299326e+03 1.0723430925e+03 1.2500000000e+02 0.0000e+00 0.0000e+00
      -11  1    4    4    0    0 +1.3950985631e-02 +5.1017274155e-02 +6.5877568727e-01 6.6089564950e-01 5.1100000000e-04 0.0000e+00 -1.0000e+00
      255  1    4    4    0    0 -3.2340049906e+01 -5.0206742599e+00 +5.0614408007e+02 5.2237717771e+02 1.2500000000e+02 0.0000e+00 0.0000e+00
<mgrwt>
<rscale>  0 0.27605493E+03</rscale>
<asrwt>0</asrwt>
<pdfrwt beam="1">  1        2 0.18503654E-02 0.27605493E+03</pdfrwt>
<pdfrwt beam="2">  1       -2 0.24369511E+00 0.27605493E+03</pdfrwt>
<totfact> 0.47674105E+02</totfact>
</mgrwt>
</event>
<event>
 8      1 +1.6198320e-01 5.32611600e+02 7.81860800e-03 1.00560100e-01
       -2 -1    0    0    0  501 -0.0000000000e+00 +0.0000000000e+00 +6.0539665779e+02 6.0539665780e+02 2.5500000000e-03 0.0000e+00 -1.0000e+00
        2 -1    0    0  501    0 +0.0000000000e+00 -0.0000000000e+00 -1.1714430795e+02 1.1714430798e+02 2.5500000000e-03 0.0000e+00 1.0000e+00
  1000101  2    1    2    0    0 -1.7132447002e+02 +1.4384842707e+02 +3.4218190270e+02 4.2753108950e+02 1.2509969606e+02 1.9089e+02 0.0000e+00
 -1000101  2    1    2    0    0 +1.7132447002e+02 -1.4384842707e+02 +1.4607044714e+02 2.9500987627e+02 1.2509919094e+02 1.0049e+02 0.0000e+00
       11  1    3    3    0    0 -1.6003718756e-01 +2.4316451895e-01 +3.5002997981e-01 4.5526051066e-01 5.1100000000e-04 0.0000e+00 1.0000e+00
      255  1    3    3    0    0 -1.7116443284e+02 +1.4360526255e+02 +3.4183187272e+02 4.2707582899e+02 1.2500000000e+02 0.0000e+00 0.0000e+00
      -11  1    4    4    0    0 +2.6441924332e-01 -1.4747737350e-01 +2.3997585039e-01 3.8633635841e-01 5.1100000000e-04 0.0000e+00 -1.0000e+00
      255  1    4    4    0    0 +1.7106005078e+02 -1.4370094970e+02 +1.4583047129e+02 2.9462353992e+02 1.2500000000e+02 0.0000e+00 0.0000e+00
<mgrwt>
<rscale>  0 0.53261158E+03</rscale>
<asrwt>0</asrwt>
<pdfrwt beam="1">  1        2 0.18022202E-01 0.53261158E+03</pdfrwt>
<pdfrwt beam="2">  1       -2 0.93137946E-01 0.53261158E+03</pdfrwt>
<totfact> 0.31737530E+02</totfact>
</mgrwt>
</event>
<event>
 8      1 +1.6198320e-01 4.00365500e+02 7.81860800e-03 1.04365300e-01
       -2 -1    0    0    0  501 -0.0000000000e+00 +0.0000000000e+00 +1.3862496669e+01 1.3862496903e+01 2.5500000000e-03 0.0000e+00 -1.0000e+00
        2 -1    0    0  501    0 +0.0000000000e+00 -0.0000000000e+00 -2.8907592010e+03 2.8907592010e+03 2.5500000000e-03 0.0000e+00 1.0000e+00
  1000101  2    1    2    0    0 +1.4829745541e+02 -4.8353912945e+01 -1.3685292630e+03 1.3830591381e+03 1.2509995894e+02 1.4031e+01 0.0000e+00
 -1000101  2    1    2    0    0 -1.4829745541e+02 +4.8353912945e+01 -1.5083674413e+03 1.5215625598e+03 1.2510015600e+02 9.7542e+01 0.0000e+00
       11  1    3    3    0    0 +1.6465250394e-01 -1.7240141537e-02 -1.9200424776e+00 1.9271665850e+00 5.1100000000e-04 0.0000e+00 1.0000e+00
      255  1    3    3    0    0 +1.4813280291e+02 -4.8336672803e+01 -1.3666092205e+03 1.3811319715e+03 1.2500000000e+02 0.0000e+00 0.0000e+00
      -11  1    4    4    0    0 -8.0691702066e-02 -6.3558366386e-03 -2.2851365413e-01 2.4242586225e-01 5.1100000000e-04 0.0000e+00 -1.0000e+00
      255  1    4    4    0    0 -1.4821676371e+02 +4.8360268781e+01 -1.5081389277e+03 1.5213201339e+03 1.2500000000e+02 0.0000e+00 0.0000e+00
<mgrwt>
<rscale>  0 0.40036553E+03</rscale>
<asrwt>0</asrwt>
<pdfrwt beam="1">  1        2 0.44473170E+00 0.40036553E+03</pdfrwt>
<pdfrwt beam="2">  1       -2 0.21326941E-02 0.40036553E+03</pdfrwt>
<totfact> 0.16725494E+03</totfact>
</mgrwt>
</event>
<event>
 8      1 +1.6198320e-01 2.68445600e+02 7.81860800e-03 1.10217300e-01
        2 -1    0    0  501    0 +0.0000000000e+00 +0.0000000000e+00 +3.9188164952e+01 3.9188165035e+01 2.5500000000e-03 0.0000e+00 1.0000e+00
       -2 -1    0    0    0  501 -0.0000000000e+00 -0.0000000000e+00 -4.5972464024e+02 4.5972464025e+02 2.5500000000e-03 0.0000e+00 -1.0000e+00
  1000101  2    1    2    0    0 -2.4447510816e+00 +7.6823258102e+00 -1.2112175246e+02 1.7431432690e+02 1.2510000282e+02 2.1110e+01 0.0000e+00
 -1000101  2    1    2    0    0 +2.4447510816e+00 -7.6823258102e+00 -2.9941472283e+02 3.2459847838e+02 1.2509996396e+02 5.6646e+00 0.0000e+00
       11  1    3    3    0    0 -6.8083832760e-02 +3.8725623040e-02 -5.9789713852e-03 7.8556294361e-02 5.1100000000e-04 0.0000e+00 1.0000e+00
      255  1    3    3    0    0 -2.3766672488e+00 +7.6436001871e+00 -1.2111577349e+02 1.7423577061e+02 1.2500000000e+02 0.0000e+00 0.0000e+00
      -11  1    4    4    0    0 -8.0702635339e-02 -4.0920432277e-02 -1.2626393190e-01 1.5533910888e-01 5.1100000000e-04 0.0000e+00 -1.0000e+00
      255  1    4    4    0    0 +2.5254537169e+00 -7.6414053779e+00 -2.9928845889e+02 3.2444313927e+02 1.2500000000e+02 0.0000e+00 0.0000e+00
<mgrwt>
<rscale>  0 0.26844564E+03</rscale>
<asrwt>0</asrwt>
<pdfrwt beam="1">  1        2 0.60289488E-02 0.26844564E+03</pdfrwt>
<pdfrwt beam="2">  1       -2 0.70726864E-01 0.26844564E+03</pdfrwt>
<totfact> 0.22820027E+03</totfact>
</mgrwt>
</event>
<event>
 8      1 +1.6198320e-01 4.73553900e+02 7.81860800e-03 1.02092200e-01
        2 -1    0    0  501    0 +0.0000000000e+00 +0.0000000000e+00 +1.1957896044e+03 1.1957896044e+03 2.5500000000e-03 0.0000e+00 1.0000e+00
       -2 -1    0    0    0  501 -0.0000000000e+00 -0.0000000000e+00 -4.6883933819e+01 4.6883933889e+01 2.5500000000e-03 0.0000e+00 -1.0000e+00
  1000101  2    1    2    0    0 +4.8283953833e+01 -1.6128335307e+02 +2.8615944655e+02 3.5479696854e+02 1.2509995947e+02 5.3756e+01 0.0000e+00
 -1000101  2    1    2    0    0 -4.8283953833e+01 +1.6128335307e+02 +8.6274622399e+02 8.8787656971e+02 1.2510034315e+02 6.3562e+00 0.0000e+00
       11  1    3    3    0    0 +5.1082879969e-02 +1.9942024051e-02 +5.7077260545e-02 7.9153141075e-02 5.1100000000e-04 0.0000e+00 1.0000e+00
      255  1    3    3    0    0 +4.8232870953e+01 -1.6130329509e+02 +2.8610236929e+02 3.5471781540e+02 1.2500000000e+02 0.0000e+00 0.0000e+00
      -11  1    4    4    0    0 -1.7525000706e-02 +1.3887141516e-03 +5.3162237488e-01 5.3191321169e-01 5.1100000000e-04 0.0000e+00 -1.0000e+00
      255  1    4    4    0    0 -4.8266428833e+01 +1.6128196436e+02 +8.6221460161e+02 8.8734465650e+02 1.2500000000e+02 0.0000e+00 0.0000e+00
<mgrwt>
<rscale>  0 0.47355389E+03</rscale>
<asrwt>0</asrwt>
<pdfrwt beam="1">  1        2 0.18396764E+00 0.47355389E+03</pdfrwt>
<pdfrwt beam="2">  1       -2 0.72129124E-02 0.47355389E+03</pdfrwt>
<totfact> 0.22329966E+03</totfact>
</mgrwt>
</event>
<event>
 8      1 +1.6198320e-01 3.85077600e+02 7.81860800e-03 1.04907300e-01
       -2 -1    0    0    0  501 -0.0000000000e+00 +0.0000000000e+00 +2.6881584679e+01 2.6881584800e+01 2.5500000000e-03 0.0000e+00 -1.0000e+00
        2 -1    0    0  501    0 +0.0000000000e+00 -0.0000000000e+00 -1.3790548743e+03 1.3790548743e+03 2.5500000000e-03 0.0000e+00 1.0000e+00
  1000101  2    1    2    0    0 -1.2723449018e+01 -3.0533997238e+01 -1.5555197209e+02 2.0233903251e+02 1.2510178622e+02 6.5237e+01 0.0000e+00
 -1000101  2    1    2    0    0 +1.2723449018e+01 +3.0533997238e+01 -1.1966213176e+03 1.2035974266e+03 1.2509986641e+02 4.1960e+01 0.0000e+00
       11  1    3    3    0    0 +7.3523147588e-02 +4.7430832454e-03 -1.8907192729e-01 2.0292019338e-01 5.1100000000e-04 0.0000e+00 1.0000e+00
      255  1    3    3    0    0 -1.2796972165e+01 -3.0538740321e+01 -1.5536290016e+02 2.0213611232e+02 1.2500000000e+02 0.0000e+00 0.0000e+00
      -11  1    4    4    0    0 +2.4365715512e-04 -3.7216277712e-02 -7.2329402164e-02 8.1344417353e-02 5.1100000000e-04 0.0000e+00 -1.0000e+00
      255  1    4    4    0    0 +1.2723205361e+01 +3.0571213515e+01 -1.1965489882e+03 1.2035160822e+03 1.2500000000e+02 0.0000e+00 0.0000e+00
<mgrwt>
<rscale>  0 0.38507755E+03</rscale>
<asrwt>0</asrwt>
<pdfrwt beam="1">  1        2 0.21216223E+00 0.38507755E+03</pdfrwt>
<pdfrwt beam="2">  1       -2 0.41356295E-02 0.38507755E+03</pdfrwt>
<totfact> 0.41577639E+03</totfact>
</mgrwt>
</event>
<event>
 8      1 +1.6198320e-01 5.79346200e+02 7.81860800e-03 9.94920700e-02
        2 -1    0    0  501    0 +0.0000000000e+00 +0.0000000000e+00 +3.8199123602e+03 3.8199123602e+03 2.5500000000e-03 0.0000e+00 1.0000e+00
       -2 -1    0    0    0  501 -0.0000000000e+00 -0.0000000000e+00 -2.1966604250e+01 2.1966604398e+01 2.5500000000e-03 0.0000e+00 -1.0000e+00
  1000101  2    1    2    0    0 +1.7222753950e+02 -1.6345521389e+02 +1.1761630353e+03 1.2063952205e+03 1.2510000078e+02 2.3468e+01 0.0000e+00
 -1000101  2    1    2    0    0 -1.7222753950e+02 +1.6345521389e+02 +2.6217827207e+03 2.6354837441e+03 1.2509995468e+02 1.8668e+01 0.0000e+00
       11  1    3    3    0    0 +8.3561925864e-02 -2.1305370905e-01 +9.0596898536e-01 9.3442738720e-01 5.1100000000e-04 0.0000e+00 1.0000e+00
      255  1    3    3    0    0 +1.7214397758e+02 -1.6324216018e+02 +1.1752570663e+03 1.2054607931e+03 1.2500000000e+02 0.0000e+00 0.0000e+00
      -11  1    4    4    0    0 -2.0702874804e-01 +9.0277971771e-02 +1.6737755862e+00 1.6889452296e+00 5.1100000000e-04 0.0000e+00 -1.0000e+00
      255  1    4    4    0    0 -1.7202051075e+02 +1.6336493592e+02 +2.6201089451e+03 2.6337947989e+03 1.2500000000e+02 0.0000e+00 0.0000e+00
<mgrwt>
<rscale>  0 0.57934619E+03</rscale>
<asrwt>0</asrwt>
<pdfrwt beam="1">  1        2 0.58767819E+00 0.57934619E+03</pdfrwt>
<pdfrwt beam="2">  1       -2 0.33794812E-02 0.57934619E+03</pdfrwt>
<totfact> 0.20069688E+02</totfact>
</mgrwt>
</event>
<event>
 8      1 +1.6198320e-01 7.11215900e+02 7.81860800e-03 9.69824100e-02
       -2 -1    0    0    0  501 -0.0000000000e+00 +0.0000000000e+00 +1.6717160029e+02 1.6717160031e+02 2.5500000000e-03 0.0000e+00 -1.0000e+00
        2 -1    0    0  501    0 +0.0000000000e+00 -0.0000000000e+00 -7.5645042017e+02 7.5645042018e+02 2.5500000000e-03 0.0000e+00 1.0000e+00
  1000101  2    1    2    0    0 -1.7051346497e+02 -1.4786006266e+00 -6.6590390844e+02 6.9868094708e+02 1.2510005013e+02 1.2307e+02 0.0000e+00
 -1000101  2    1    2    0    0 +1.7051346497e+02 +1.4786006266e+00 +7.6625088555e+01 2.2494107340e+02 1.2510017711e+02 6.8474e+02 0.0000e+00
       11  1    3    3    0    0 -2.6341604506e-01 -6.6748845234e-02 -8.1686148296e-01 8.6087534789e-01 5.1100000000e-04 0.0000e+00 1.0000e+00
      255  1    3    3    0    0 -1.7025004892e+02 -1.4118517813e+00 -6.6508704696e+02 6.9782007173e+02 1.2500000000e+02 0.0000e+00 0.0000e+00
      -11  1    4    4    0    0 +2.7128042299e-01 +4.8370183449e-02 +1.4221748696e-01 3.1009485204e-01 5.1100000000e-04 0.0000e+00 -1.0000e+00
      255  1    4    4    0    0 +1.7024218454e+02 +1.4302304431e+00 +7.6482871068e+01 2.2463097855e+02 1.2500000000e+02 0.0000e+00 0.0000e+00
<mgrwt>
<rscale>  0 0.71121594E+03</rscale>
<asrwt>0</asrwt>
<pdfrwt beam="1">  1        2 0.11637699E+00 0.71121594E+03</pdfrwt>
<pdfrwt beam="2">  1       -2 0.25718708E-01 0.71121594E+03</pdfrwt>
<totfact> 0.50783193E+02</totfact>
</mgrwt>
</event>
<event>
 8      1 +1.6198320e-01 6.43520000e+02 7.81860800e-03 9.81901500e-02
       -2 -1    0    0    0  501 -0.0000000000e+00 +0.0000000000e+00 +7.9939238546e+01 7.9939238586e+01 2.5500000000e-03 0.0000e+00 -1.0000e+00
        2 -1    0    0  501    0 +0.0000000000e+00 -0.0000000000e+00 -1.2951024498e+03 1.2951024498e+03 2.5500000000e-03 0.0000e+00 1.0000e+00
  1000101  2    1    2    0    0 +2.8036051265e+02 -9.2725232286e+01 -5.5188185977e+02 6.3829740191e+02 1.2509996158e+02 8.5433e+00 0.0000e+00
 -1000101  2    1    2    0    0 -2.8036051265e+02 +9.2725232286e+01 -6.6328135152e+02 7.3674428652e+02 1.2509998674e+02 5.6685e+00 0.0000e+00
       11  1    3    3    0    0 +4.0930226612e-01 -5.7054483951e-02 -7.0144794145e-01 8.1413330289e-01 5.1100000000e-04 0.0000e+00 1.0000e+00
      255  1    3    3    0    0 +2.7995121038e+02 -9.2668177802e+01 -5.5118041183e+02 6.3748326861e+02 1.2500000000e+02 0.0000e+00 0.0000e+00
      -11  1    4    4    0    0 -4.5947060329e-01 +1.2258416655e-01 -9.3160436961e-01 1.0459574923e+00 5.1100000000e-04 0.0000e+00 -1.0000e+00
      255  1    4    4    0    0 -2.7990104204e+02 +9.2602648120e+01 -6.6234974715e+02 7.3569832902e+02 1.2500000000e+02 0.0000e+00 0.0000e+00
<mgrwt>
<rscale>  0 0.64352002E+03</rscale>
<asrwt>0</asrwt>
<pdfrwt beam="1">  1        2 0.19924652E+00 0.64352002E+03</pdfrwt>
<pdfrwt beam="2">  1       -2 0.12298345E-01 0.64352002E+03</pdfrwt>
<totfact> 0.82357764E+02</totfact>
</mgrwt>
</event>
<event>
 8      1 +1.6198320e-01 2.82703100e+02 7.81860800e-03 1.09422200e-01
       -2 -1    0    0    0  501 -0.0000000000e+00 +0.0000000000e+00 +3.0538522066e+01 3.0538522173e+01 2.5500000000e-03 0.0000e+00 -1.0000e+00
        2 -1    0    0  501    0 +0.0000000000e+00 -0.0000000000e+00 -6.5426423238e+02 6.5426423239e+02 2.5500000000e-03 0.0000e+00 1.0000e+00
  1000101  2    1    2    0    0 -1.1052525708e+01 +5.6611113256e+01 -3.8858873466e+02 4.1228407106e+02 1.2509985642e+02 4.1453e+01 0.0000e+00
 -1000101  2    1    2    0    0 +1.1052525708e+01 -5.6611113256e+01 -2.3513697566e+02 2.7251868350e+02 1.2510019611e+02 1.3310e+02 0.0000e+00
       11  1    3    3    0    0 +5.0343673023e-02 +1.0123578169e-01 -1.8074043891e-01 2.1319131381e-01 5.1100000000e-04 0.0000e+00 1.0000e+00
      255  1    3    3    0    0 -1.1102869381e+01 +5.6509877475e+01 -3.8840799422e+02 4.1207087975e+02 1.2500000000e+02 0.0000e+00 0.0000e+00
      -11  1    4    4    0    0 -2.0040400164e-02 +4.5651356949e-02 -2.1640761973e-02 5.4352991914e-02 5.1100000000e-04 0.0000e+00 -1.0000e+00
      255  1    4    4    0    0 +1.1072566108e+01 -5.6656764613e+01 -2.3511533490e+02 2.7246433051e+02 1.2500000000e+02 0.0000e+00 0.0000e+00
<mgrwt>
<rscale>  0 0.28270311E+03</rscale>
<asrwt>0</asrwt>
<pdfrwt beam="1">  1        2 0.10065603E+00 0.28270311E+03</pdfrwt>
<pdfrwt beam="2">  1       -2 0.46982347E-02 0.28270311E+03</pdfrwt>
<totfact> 0.97731217E+03</totfact>
</mgrwt>
</event>
<event>
 8      1 +1.6198320e-01 3.07599800e+02 7.81860800e-03 1.08150200e-01
        2 -1    0    0  501    0 +0.0000000000e+00 +0.0000000000e+00 +8.5402185669e+02 8.5402185670e+02 2.5500000000e-03 0.0000e+00 1.0000e+00
       -2 -1    0    0    0  501 -0.0000000000e+00 -0.0000000000e+00 -2.7697656755e+01 2.7697656872e+01 2.5500000000e-03 0.0000e+00 -1.0000e+00
  1000101  2    1    2    0    0 +5.2610694868e+01 -7.0931888137e+01 +3.7210109554e+02 4.0237846771e+02 1.2509991210e+02 5.8869e+01 0.0000e+00
 -1000101  2    1    2    0    0 -5.2610694868e+01 +7.0931888137e+01 +4.5422310440e+02 4.7934104586e+02 1.2509992688e+02 1.2566e+02 0.0000e+00
       11  1    3    3    0    0 +4.3544072373e-02 +5.2666778154e-02 +2.3617550553e-01 2.4586379623e-01 5.1100000000e-04 0.0000e+00 1.0000e+00
      255  1    3    3    0    0 +5.2567150796e+01 -7.0984554915e+01 +3.7186492003e+02 4.0213260391e+02 1.2500000000e+02 0.0000e+00 0.0000e+00
      -11  1    4    4    0    0 +2.3641750655e-02 +8.2713750495e-02 +1.0812529504e-01 1.3817321537e-01 5.1100000000e-04 0.0000e+00 -1.0000e+00
      255  1    4    4    0    0 -5.2634336619e+01 +7.0849174387e+01 +4.5411497910e+02 4.7920287264e+02 1.2500000000e+02 0.0000e+00 0.0000e+00
<mgrwt>
<rscale>  0 0.30759977E+03</rscale>
<asrwt>0</asrwt>
<pdfrwt beam="1">  1        2 0.13138799E+00 0.30759977E+03</pdfrwt>
<pdfrwt beam="2">  1       -2 0.42611775E-02 0.30759977E+03</pdfrwt>
<totfact> 0.81478870E+03</totfact>
</mgrwt>
</event>
<event>
 8      1 +1.6198320e-01 3.13333400e+02 7.81860800e-03 1.07875900e-01
       -2 -1    0    0    0  501 -0.0000000000e+00 +0.0000000000e+00 +1.4536607978e+01 1.4536608202e+01 2.5500000000e-03 0.0000e+00 1.0000e+00
        2 -1    0    0  501    0 +0.0000000000e+00 -0.0000000000e+00 -1.6884578963e+03 1.6884578963e+03 2.5500000000e-03 0.0000e+00 -1.0000e+00
  1000101  2    1    2    0    0 +5.2832048348e+01 +4.6051160170e+01 -1.1799619119e+03 1.1886428961e+03 1.2509950557e+02 1.0072e+01 0.0000e+00
 -1000101  2    1    2    0    0 -5.2832048348e+01 -4.6051160170e+01 -4.9395937644e+02 5.1435160839e+02 1.2509906794e+02 4.4401e+00 0.0000e+00
       11  1    3    3    0    0 +4.3937822600e-02 -6.7002934414e-02 -5.4913735680e-01 5.5495227113e-01 5.1100000000e-04 0.0000e+00 1.0000e+00
      255  1    3    3    0    0 +5.2788110525e+01 +4.6118163105e+01 -1.1794127745e+03 1.1880879438e+03 1.2500000000e+02 0.0000e+00 0.0000e+00
      -11  1    4    4    0    0 -6.2761240087e-02 +5.5801788878e-02 -4.4669104923e-01 4.5451729063e-01 5.1100000000e-04 0.0000e+00 -1.0000e+00
      255  1    4    4    0    0 -5.2769287108e+01 -4.6106961959e+01 -4.9351268539e+02 5.1389709110e+02 1.2500000000e+02 0.0000e+00 0.0000e+00
<mgrwt>
<rscale>  0 0.31333337E+03</rscale>
<asrwt>0</asrwt>
<pdfrwt beam="1">  1        2 0.25976260E+00 0.31333337E+03</pdfrwt>
<pdfrwt beam="2">  1       -2 0.22364026E-02 0.31333337E+03</pdfrwt>
<totfact> 0.71131332E+03</totfact>
</mgrwt>
</event>
<event>
 8      1 +1.6198320e-01 5.23579700e+02 7.81860800e-03 1.00780100e-01
        2 -1    0    0  501    0 +0.0000000000e+00 +0.0000000000e+00 +1.2518810377e+03 1.2518810377e+03 2.5500000000e-03 0.0000e+00 1.0000e+00
       -2 -1    0    0    0  501 -0.0000000000e+00 -0.0000000000e+00 -5.4744762257e+01 5.4744762316e+01 2.5500000000e-03 0.0000e+00 -1.0000e+00
  1000101  2    1    2    0    0 -2.0324639570e+02 +3.0057848848e+01 +3.4077058780e+02 4.1711762681e+02 1.2509975796e+02 8.9317e+01 0.0000e+00
 -1000101  2    1    2    0    0 +2.0324639570e+02 -3.0057848848e+01 +8.5636568766e+02 8.8950817323e+02 1.2510007036e+02 4.9198e+01 0.0000e+00
       11  1    3    3    0    0 -1.3705442157e-01 +5.3607022985e-02 +4.0915620447e-01 4.3481799430e-01 5.1100000000e-04 0.0000e+00 1.0000e+00
      255  1    3    3    0    0 -2.0310934127e+02 +3.0004241825e+01 +3.4036143160e+02 4.1668280881e+02 1.2500000000e+02 0.0000e+00 0.0000e+00
      -11  1    4    4    0    0 +2.5751170491e-01 +4.9098433558e-02 +1.0352641166e+00 1.0679395987e+00 5.1100000000e-04 0.0000e+00 -1.0000e+00
      255  1    4    4    0    0 +2.0298888399e+02 -3.0106947281e+01 +8.5533042354e+02 8.8844023363e+02 1.2500000000e+02 0.0000e+00 0.0000e+00
<mgrwt>
<rscale>  0 0.52357972E+03</rscale>
<asrwt>0</asrwt>
<pdfrwt beam="1">  1        2 0.19259708E+00 0.52357972E+03</pdfrwt>
<pdfrwt beam="2">  1       -2 0.84222714E-02 0.52357972E+03</pdfrwt>
<totfact> 0.16190821E+03</totfact>
</mgrwt>
</event>
<event>
 8      1 +1.6198320e-01 3.11644100e+02 7.81860800e-03 1.07956000e-01
       -2 -1    0    0    0  501 -0.0000000000e+00 +0.0000000000e+00 +2.2196288251e+02 2.2196288252e+02 2.5500000000e-03 0.0000e+00 -1.0000e+00
        2 -1    0    0  501    0 +0.0000000000e+00 -0.0000000000e+00 -1.0938995671e+02 1.0938995674e+02 2.5500000000e-03 0.0000e+00 1.0000e+00
  1000101  2    1    2    0    0 -8.8554582999e+01 -2.1232693877e+01 +3.6743754631e+01 1.5903690096e+02 1.2509952399e+02 4.5569e+01 0.0000e+00
 -1000101  2    1    2    0    0 +8.8554582999e+01 +2.1232693877e+01 +7.5829171169e+01 1.7231593831e+02 1.2509987184e+02 3.1440e+01 0.0000e+00
       11  1    3    3    0    0 +1.1954145767e-02 +3.7097417092e-02 -4.1627632189e-02 5.7028421326e-02 5.1100000000e-04 0.0000e+00 1.0000e+00
      255  1    3    3    0    0 -8.8566537145e+01 -2.1269791294e+01 +3.6785382263e+01 1.5897987254e+02 1.2500000000e+02 0.0000e+00 0.0000e+00
      -11  1    4    4    0    0 +1.0078940735e-01 +1.1653145508e-01 +8.6584584884e-02 1.7673493180e-01 5.1100000000e-04 0.0000e+00 -1.0000e+00
      255  1    4    4    0    0 +8.8453793592e+01 +2.1116162422e+01 +7.5742586584e+01 1.7213920338e+02 1.2500000000e+02 0.0000e+00 0.0000e+00
<mgrwt>
<rscale>  0 0.31164409E+03</rscale>
<asrwt>0</asrwt>
<pdfrwt beam="1">  1        2 0.16829224E-01 0.31164409E+03</pdfrwt>
<pdfrwt beam="2">  1       -2 0.34148135E-01 0.31164409E+03</pdfrwt>
<totfact> 0.27362840E+03</totfact>
</mgrwt>
</event>
<event>
 8      1 +1.6198320e-01 5.11374800e+02 7.81860800e-03 1.01085200e-01
        2 -1    0    0  501    0 +0.0000000000e+00 +0.0000000000e+00 +1.4462954663e+02 1.4462954666e+02 2.5500000000e-03 0.0000e+00 1.0000e+00
       -2 -1    0    0    0  501 -0.0000000000e+00 -0.0000000000e+00 -4.5202413632e+02 4.5202413633e+02 2.5500000000e-03 0.0000e+00 -1.0000e+00
  1000101  2    1    2    0    0 -1.9704360563e+02 -7.7080930240e+01 -2.3585601555e+02 3.4065485044e+02 1.2510001889e+02 1.0869e+02 0.0000e+00
 -1000101  2    1    2    0    0 +1.9704360563e+02 +7.7080930240e+01 -7.1538574134e+01 2.5599883255e+02 1.2509988949e+02 3.3902e+01 0.0000e+00
       11  1    3    3    0    0 -2.2122898383e-02 -3.6627942016e-03 -1.5850289454e-01 1.6008206456e-01 5.1100000000e-04 0.0000e+00 1.0000e+00
      255  1    3    3    0    0 -1.9702148273e+02 -7.7077267446e+01 -2.3569751266e+02 3.4049476837e+02 1.2500000000e+02 0.0000e+00 0.0000e+00
      -11  1    4    4    0    0 +1.0508830629e-01 -2.9722968389e-02 -1.0149930197e-01 1.4909519237e-01 5.1100000000e-04 0.0000e+00 -1.0000e+00
      255  1    4    4    0    0 +1.9693851733e+02 +7.7110653208e+01 -7.1437074832e+01 2.5584973736e+02 1.2500000000e+02 0.0000e+00 0.0000e+00
<mgrwt>
<rscale>  0 0.51137480E+03</rscale>
<asrwt>0</asrwt>
<pdfrwt beam="1">  1        2 0.22250700E-01 0.51137480E+03</pdfrwt>
<pdfrwt beam="2">  1       -2 0.69542174E-01 0.51137480E+03</pdfrwt>
<totfact> 0.47713920E+02</totfact>
</mgrwt>
</event>
<event>
 8      1 +1.6198320e-01 2.77600100e+02 7.81860800e-03 1.09700700e-01
       -2 -1    0    0    0  501 -0.0000000000e+00 +0.0000000000e+00 +2.8534997029e+01 2.8534997142e+01 2.5500000000e-03 0.0000e+00 -1.0000e+00
        2 -1    0    0  501    0 +0.0000000000e+00 -0.0000000000e+00 -6.7515176984e+02 6.7515176985e+02 2.5500000000e-03 0.0000e+00 1.0000e+00
  1000101  2    1    2    0    0 -5.5431412985e+01 -1.6367616911e+01 -3.6533548658e+02 3.9046201775e+02 1.2510007642e+02 4.6317e+01 0.0000e+00
 -1000101  2    1    2    0    0 +5.5431412985e+01 +1.6367616911e+01 -2.8128128623e+02 3.1322474924e+02 1.2510012439e+02 2.2271e+02 0.0000e+00
       11  1    3    3    0    0 +1.4338396942e-02 +9.3372678599e-03 -4.5534895823e-01 4.5567061467e-01 5.1100000000e-04 0.0000e+00 1.0000e+00
      255  1    3    3    0    0 -5.5445751382e+01 -1.6376954179e+01 -3.6488013762e+02 3.9000634714e+02 1.2500000000e+02 0.0000e+00 0.0000e+00
      -11  1    4    4    0    0 +9.6742236455e-02 +7.5346442672e-02 -1.3572617894e-01 1.8291529053e-01 5.1100000000e-04 0.0000e+00 -1.0000e+00
      255  1    4    4    0    0 +5.5334670749e+01 +1.6292270468e+01 -2.8114556005e+02 3.1304183395e+02 1.2500000000e+02 0.0000e+00 0.0000e+00
<mgrwt>
<rscale>  0 0.27760010E+03</rscale>
<asrwt>0</asrwt>
<pdfrwt beam="1">  1        2 0.10386949E+00 0.27760010E+03</pdfrwt>
<pdfrwt beam="2">  1       -2 0.43900000E-02 0.27760010E+03</pdfrwt>
<totfact> 0.10424282E+04</totfact>
</mgrwt>
</event>
<event>
 8      1 +1.6198320e-01 3.45073400e+02 7.81860800e-03 1.06465500e-01
        2 -1    0    0  501    0 +0.0000000000e+00 +0.0000000000e+00 +1.6221006756e+03 1.6221006756e+03 2.5500000000e-03 0.0000e+00 1.0000e+00
       -2 -1    0    0    0  501 -0.0000000000e+00 -0.0000000000e+00 -1.8352074132e+01 1.8352074309e+01 2.5500000000e-03 0.0000e+00 -1.0000e+00
  1000101  2    1    2    0    0 +3.2626085499e+01 -4.0786854500e+01 +2.9449739032e+02 3.2420169352e+02 1.2509994492e+02 7.1492e+01 0.0000e+00
 -1000101  2    1    2    0    0 -3.2626085499e+01 +4.0786854500e+01 +1.3092512111e+03 1.3162510564e+03 1.2510028221e+02 9.8764e+01 0.0000e+00
       11  1    3    3    0    0 -1.2444862164e-02 -3.6977455097e-02 +4.3896560712e-01 4.4069634913e-01 5.1100000000e-04 0.0000e+00 1.0000e+00
      255  1    3    3    0    0 +3.2638530361e+01 -4.0749877045e+01 +2.9405842472e+02 3.2376099717e+02 1.2500000000e+02 0.0000e+00 0.0000e+00
      -11  1    4    4    0    0 +3.2642153977e-02 -4.7939533934e-02 +2.9379814010e-01 2.9946839128e-01 5.1100000000e-04 0.0000e+00 -1.0000e+00
      255  1    4    4    0    0 -3.2658727653e+01 +4.0834794034e+01 +1.3089574130e+03 1.3159515880e+03 1.2500000000e+02 0.0000e+00 0.0000e+00
<mgrwt>
<rscale>  0 0.34507340E+03</rscale>
<asrwt>0</asrwt>
<pdfrwt beam="1">  1        2 0.24955395E+00 0.34507340E+03</pdfrwt>
<pdfrwt beam="2">  1       -2 0.28233961E-02 0.34507340E+03</pdfrwt>
<totfact> 0.54565232E+03</totfact>
</mgrwt>
</event>
<event>
 8      1 +1.6198320e-01 2.72918800e+02 7.81860800e-03 1.09962100e-01
        1 -1    0    0  501    0 +0.0000000000e+00 +0.0000000000e+00 +9.4404533784e+00 9.4404547238e+00 5.0400000000e-03 0.0000e+00 -1.0000e+00
       -1 -1    0    0    0  501 -0.0000000000e+00 -0.0000000000e+00 -1.9724863210e+03 1.9724863210e+03 5.0400000000e-03 0.0000e+00 1.0000e+00
  1000101  2    1    2    0    0 +7.1705339005e+00 -2.6546188404e+01 -1.3233026751e+03 1.3294871466e+03 1.2509990640e+02 3.5410e+01 0.0000e+00
 -1000101  2    1    2    0    0 -7.1705339005e+00 +2.6546188404e+01 -6.3974319253e+02 6.5243962906e+02 1.2509996205e+02 4.9829e+01 0.0000e+00
       11  1    3    3    0    0 -4.5421874770e-02 -1.0796899642e-01 -1.1352879839e+00 1.1413148200e+00 5.1100000000e-04 0.0000e+00 1.0000e+00
      255  1    3    3    0    0 +7.2159557753e+00 -2.6438219408e+01 -1.3221673871e+03 1.3283458318e+03 1.2500000000e+02 0.0000e+00 0.0000e+00
      -11  1    4    4    0    0 -9.3106218292e-02 -1.0741772196e-02 -3.1647494084e-01 3.3006181672e-01 5.1100000000e-04 0.0000e+00 -1.0000e+00
      255  1    4    4    0    0 -7.0774276822e+00 +2.6556930177e+01 -6.3942671759e+02 6.5210956725e+02 1.2500000000e+02 0.0000e+00 0.0000e+00
<mgrwt>
<rscale>  0 0.27291879E+03</rscale>
<asrwt>0</asrwt>
<pdfrwt beam="1">  1        1 0.14523791E-02 0.27291879E+03</pdfrwt>
<pdfrwt beam="2">  1       -1 0.30345911E+00 0.27291879E+03</pdfrwt>
<totfact> 0.35004272E+02</totfact>
</mgrwt>
</event>
<event>
 8      1 +1.6198320e-01 3.55803400e+02 7.81860800e-03 1.06025800e-01
       -2 -1    0    0    0  501 -0.0000000000e+00 +0.0000000000e+00 +2.1424797309e+01 2.1424797461e+01 2.5500000000e-03 0.0000e+00 -1.0000e+00
        2 -1    0    0  501    0 +0.0000000000e+00 -0.0000000000e+00 -1.4772145201e+03 1.4772145201e+03 2.5500000000e-03 0.0000e+00 1.0000e+00
  1000101  2    1    2    0    0 -1.0420819637e+02 +7.0142202390e+01 -7.9035031358e+02 8.0998947053e+02 1.2510014969e+02 2.0099e+01 0.0000e+00
 -1000101  2    1    2    0    0 +1.0420819637e+02 -7.0142202390e+01 -6.6543940924e+02 6.8864984706e+02 1.2509887185e+02 1.0304e+02 0.0000e+00
       11  1    3    3    0    0 -1.5927655602e-01 +3.7920982355e-02 -4.6563432579e-01 4.9358141038e-01 5.1100000000e-04 0.0000e+00 1.0000e+00
      255  1    3    3    0    0 -1.0404891981e+02 +7.0104281408e+01 -7.8988467925e+02 8.0949588912e+02 1.2500000000e+02 0.0000e+00 0.0000e+00
      -11  1    4    4    0    0 +7.9041819999e-02 -4.4774282021e-02 -1.2045883655e-01 1.5087391445e-01 5.1100000000e-04 0.0000e+00 -1.0000e+00
      255  1    4    4    0    0 +1.0412915455e+02 -7.0097428108e+01 -6.6531895041e+02 6.8849897315e+02 1.2500000000e+02 0.0000e+00 0.0000e+00
<mgrwt>
<rscale>  0 0.35580344E+03</rscale>
<asrwt>0</asrwt>
<pdfrwt beam="1">  1        2 0.22726369E+00 0.35580344E+03</pdfrwt>
<pdfrwt beam="2">  1       -2 0.32961238E-02 0.35580344E+03</pdfrwt>
<totfact> 0.51768293E+03</totfact>
</mgrwt>
</event>
<event>
 8      1 +1.6198320e-01 2.97232400e+02 7.81860800e-03 1.08663200e-01
       -2 -1    0    0    0  501 -0.0000000000e+00 +0.0000000000e+00 +7.4041942331e+00 7.4041946722e+00 2.5500000000e-03 0.0000e+00 -1.0000e+00
        2 -1    0    0  501    0 +0.0000000000e+00 -0.0000000000e+00 -2.9830076938e+03 2.9830076938e+03 2.5500000000e-03 0.0000e+00 1.0000e+00
  1000101  2    1    2    0    0 +4.0864505834e+01 -4.3893086387e-01 -2.1824015367e+03 2.1863660623e+03 1.2509992308e+02 3.6855e+02 0.0000e+00
 -1000101  2    1    2    0    0 -4.0864505834e+01 +4.3893086387e-01 -7.9320196294e+02 8.0404582619e+02 1.2510090366e+02 4.9962e+01 0.0000e+00
       11  1    3    3    0    0 +1.0934707943e-01 +6.7652586706e-02 -2.2130701177e+00 2.2168024863e+00 5.1100000000e-04 0.0000e+00 1.0000e+00
      255  1    3    3    0    0 +4.0755158754e+01 -5.0658345057e-01 -2.1801884665e+03 2.1841492598e+03 1.2500000000e+02 0.0000e+00 0.0000e+00
      -11  1    4    4    0    0 -4.8050129723e-02 +3.3682219296e-02 -9.3476551497e-02 1.1036953232e-01 5.1100000000e-04 0.0000e+00 -1.0000e+00
      255  1    4    4    0    0 -4.0816455704e+01 +4.0524864457e-01 -7.9310848639e+02 8.0393545666e+02 1.2500000000e+02 0.0000e+00 0.0000e+00
<mgrwt>
<rscale>  0 0.29723236E+03</rscale>
<asrwt>0</asrwt>
<pdfrwt beam="1">  1        2 0.45892330E+00 0.29723236E+03</pdfrwt>
<pdfrwt beam="2">  1       -2 0.11391092E-02 0.29723236E+03</pdfrwt>
<totfact> 0.37549596E+03</totfact>
</mgrwt>
</event>
<event>
 8      1 +1.6198320e-01 2.93839100e+02 7.81860800e-03 1.08836200e-01
        2 -1    0    0  501    0 +0.0000000000e+00 +0.0000000000e+00 +1.3540057513e+03 1.3540057513e+03 2.5500000000e-03 0.0000e+00 1.0000e+00
       -2 -1    0    0    0  501 -0.0000000000e+00 -0.0000000000e+00 -1.5941851967e+01 1.5941852171e+01 2.5500000000e-03 0.0000e+00 -1.0000e+00
  1000101  2    1    2    0    0 -2.3439957576e+01 +2.9756185109e+01 +9.8180100862e+02 9.9046358204e+02 1.2510005858e+02 2.5976e+01 0.0000e+00
 -1000101  2    1    2    0    0 +2.3439957576e+01 -2.9756185109e+01 +3.5626289069e+02 3.7948402141e+02 1.2510001223e+02 5.1269e+01 0.0000e+00
       11  1    3    3    0    0 +1.6615499148e-02 +6.6353089439e-02 +1.7825647378e-01 1.9093045555e-01 5.1100000000e-04 0.0000e+00 1.0000e+00
      255  1    3    3    0    0 -2.3456573075e+01 +2.9689832020e+01 +9.8162275214e+02 9.9027265158e+02 1.2500000000e+02 0.0000e+00 0.0000e+00
      -11  1    4    4    0    0 -2.2634276676e-02 -1.0398598660e-01 +1.8547439740e-01 2.1383734262e-01 5.1100000000e-04 0.0000e+00 -1.0000e+00
      255  1    4    4    0    0 +2.3462591852e+01 -2.9652199123e+01 +3.5607741629e+02 3.7927018407e+02 1.2500000000e+02 0.0000e+00 0.0000e+00
<mgrwt>
<rscale>  0 0.29383914E+03</rscale>
<asrwt>0</asrwt>
<pdfrwt beam="1">  1        2 0.20830844E+00 0.29383914E+03</pdfrwt>
<pdfrwt beam="2">  1       -2 0.24525942E-02 0.29383914E+03</pdfrwt>
<totfact> 0.93757234E+03</totfact>
</mgrwt>
</event>
<event>
 8      1 +1.6198320e-01 3.07866600e+02 7.81860800e-03 1.08137300e-01
        2 -1    0    0  501    0 +0.0000000000e+00 +0.0000000000e+00 +2.9894011920e+02 2.9894011921e+02 2.5500000000e-03 0.0000e+00 1.0000e+00
       -2 -1    0    0    0  501 -0.0000000000e+00 -0.0000000000e+00 -7.9264881757e+01 7.9264881798e+01 2.5500000000e-03 0.0000e+00 -1.0000e+00
  1000101  2    1    2    0    0 +7.0035402957e+01 +5.3584352182e+01 +8.9680966484e+01 1.7739483248e+02 1.2510000151e+02 9.3042e+01 0.0000e+00
 -1000101  2    1    2    0    0 -7.0035402957e+01 -5.3584352182e+01 +1.2999427096e+02 2.0081016852e+02 1.2509985146e+02 4.1920e+01 0.0000e+00
       11  1    3    3    0    0 -5.1019344701e-02 -8.2671329652e-03 +5.5811702688e-02 7.6069220446e-02 5.1100000000e-04 0.0000e+00 1.0000e+00
      255  1    3    3    0    0 +7.0086422302e+01 +5.3592619315e+01 +8.9625154781e+01 1.7731876326e+02 1.2500000000e+02 0.0000e+00 0.0000e+00
      -11  1    4    4    0    0 -1.1046377407e-01 -1.7904199277e-03 +1.6180195887e-02 1.1165800843e-01 5.1100000000e-04 0.0000e+00 -1.0000e+00
      255  1    4    4    0    0 -6.9924939183e+01 -5.3582561762e+01 +1.2997809076e+02 2.0069851051e+02 1.2500000000e+02 0.0000e+00 0.0000e+00
<mgrwt>
<rscale>  0 0.30786655E+03</rscale>
<asrwt>0</asrwt>
<pdfrwt beam="1">  1        2 0.45990786E-01 0.30786655E+03</pdfrwt>
<pdfrwt beam="2">  1       -2 0.12194597E-01 0.30786655E+03</pdfrwt>
<totfact> 0.52779900E+03</totfact>
</mgrwt>
</event>
<event>
 8      1 +1.6198320e-01 3.50093600e+02 7.81860800e-03 1.06257700e-01
       -2 -1    0    0    0  501 -0.0000000000e+00 +0.0000000000e+00 +1.9082212508e+01 1.9082212678e+01 2.5500000000e-03 0.0000e+00 -1.0000e+00
        2 -1    0    0  501    0 +0.0000000000e+00 -0.0000000000e+00 -1.6057561486e+03 1.6057561486e+03 2.5500000000e-03 0.0000e+00 1.0000e+00
  1000101  2    1    2    0    0 -8.1112417652e+01 -5.1398786780e+01 -1.1458905076e+03 1.1566918932e+03 1.2510004382e+02 2.4342e+01 0.0000e+00
 -1000101  2    1    2    0    0 +8.1112417652e+01 +5.1398786780e+01 -4.4078342853e+02 4.6814646805e+02 1.2510006036e+02 8.6245e+00 0.0000e+00
       11  1    3    3    0    0 -1.3406359316e-02 +2.3157306031e-02 -2.9023494853e-02 3.9479306822e-02 5.1100000000e-04 0.0000e+00 1.0000e+00
      255  1    3    3    0    0 -8.1099011293e+01 -5.1421944086e+01 -1.1458614841e+03 1.1566524139e+03 1.2500000000e+02 0.0000e+00 0.0000e+00
      -11  1    4    4    0    0 -4.1014661400e-02 +6.9479975889e-02 -2.0893460174e-01 2.2397231620e-01 5.1100000000e-04 0.0000e+00 -1.0000e+00
      255  1    4    4    0    0 +8.1153432314e+01 +5.1329306804e+01 -4.4057449393e+02 4.6792249573e+02 1.2500000000e+02 0.0000e+00 0.0000e+00
<mgrwt>
<rscale>  0 0.35009359E+03</rscale>
<asrwt>0</asrwt>
<pdfrwt beam="1">  1        2 0.24703930E+00 0.35009359E+03</pdfrwt>
<pdfrwt beam="2">  1       -2 0.29357263E-02 0.35009359E+03</pdfrwt>
<totfact> 0.52518132E+03</totfact>
</mgrwt>
</event>
<event>
 8      1 +1.6198320e-01 3.18691500e+02 7.81860800e-03 1.07625300e-01
       -1 -1    0    0    0  501 -0.0000000000e+00 +0.0000000000e+00 +3.9046521281e+02 3.9046521284e+02 5.0400000000e-03 0.0000e+00 -1.0000e+00
        1 -1    0    0  501    0 +0.0000000000e+00 -0.0000000000e+00 -6.5027730830e+01 6.5027731026e+01 5.0400000000e-03 0.0000e+00 1.0000e+00
  1000101  2    1    2    0    0 +3.3061644869e+01 +4.9906533478e+01 +2.7486808109e+02 3.0787367709e+02 1.2509997841e+02 9.4592e+01 0.0000e+00
 -1000101  2    1    2    0    0 -3.3061644869e+01 -4.9906533478e+01 +5.0569400891e+01 1.4761926678e+02 1.2510175527e+02 9.3464e+01 0.0000e+00
       11  1    3    3    0    0 -4.6708412642e-02 +3.1968520722e-02 +2.2592830539e-02 6.0945543244e-02 5.1100000000e-04 0.0000e+00 1.0000e+00
      255  1    3    3    0    0 +3.3108353281e+01 +4.9874564957e+01 +2.7484548826e+02 3.0781273154e+02 1.2500000000e+02 0.0000e+00 0.0000e+00
      -11  1    4    4    0    0 +1.1067195870e-02 -1.3262295600e-01 +1.6024809844e-02 1.3404621194e-01 5.1100000000e-04 0.0000e+00 -1.0000e+00
      255  1    4    4    0    0 -3.3072712065e+01 -4.9773910522e+01 +5.0553376081e+01 1.4748522057e+02 1.2500000000e+02 0.0000e+00 0.0000e+00
<mgrwt>
<rscale>  0 0.31869149E+03</rscale>
<asrwt>0</asrwt>
<pdfrwt beam="1">  1        1 0.10004266E-01 0.31869149E+03</pdfrwt>
<pdfrwt beam="2">  1       -1 0.60071571E-01 0.31869149E+03</pdfrwt>
<totfact> 0.18625504E+03</totfact>
</mgrwt>
</event>
<event>
 8      1 +1.6198320e-01 3.24695700e+02 7.81860800e-03 1.07350800e-01
       -2 -1    0    0    0  501 -0.0000000000e+00 +0.0000000000e+00 +2.2910906466e+01 2.2910906608e+01 2.5500000000e-03 0.0000e+00 -1.0000e+00
        2 -1    0    0  501    0 +0.0000000000e+00 -0.0000000000e+00 -1.1504051525e+03 1.1504051525e+03 2.5500000000e-03 0.0000e+00 1.0000e+00
  1000101  2    1    2    0    0 +3.7602924694e+01 -9.6341521583e+01 -5.5172433284e+02 5.7510479960e+02 1.2510044903e+02 2.3037e+02 0.0000e+00
 -1000101  2    1    2    0    0 -3.7602924694e+01 +9.6341521583e+01 -5.7576991324e+02 5.9821125956e+02 1.2510015724e+02 1.0187e+02 0.0000e+00
       11  1    3    3    0    0 +9.9096601225e-02 -1.6446627517e-02 -5.3401789743e-01 5.4338384576e-01 5.1100000000e-04 0.0000e+00 1.0000e+00
      255  1    3    3    0    0 +3.7503828093e+01 -9.6325074955e+01 -5.5119031494e+02 5.7456141575e+02 1.2500000000e+02 0.0000e+00 0.0000e+00
      -11  1    4    4    0    0 +4.6786030260e-02 +3.0717583874e-02 -5.3353801148e-01 5.3646581755e-01 5.1100000000e-04 0.0000e+00 -1.0000e+00
      255  1    4    4    0    0 -3.7649710724e+01 +9.6310803999e+01 -5.7523637523e+02 5.9767479374e+02 1.2500000000e+02 0.0000e+00 0.0000e+00
<mgrwt>
<rscale>  0 0.32469570E+03</rscale>
<asrwt>0</asrwt>
<pdfrwt beam="1">  1        2 0.17698536E+00 0.32469570E+03</pdfrwt>
<pdfrwt beam="2">  1       -2 0.35247557E-02 0.32469570E+03</pdfrwt>
<totfact> 0.71198341E+03</totfact>
</mgrwt>
</event>
<event>
 8      1 +1.6198320e-01 2.95206800e+02 7.81860800e-03 1.08766200e-01
       -1 -1    0    0    0  501 -0.0000000000e+00 +0.0000000000e+00 +1.6831674103e+02 1.6831674111e+02 5.0400000000e-03 0.0000e+00 1.0000e+00
        1 -1    0    0  501    0 +0.0000000000e+00 -0.0000000000e+00 -1.2943906998e+02 1.2943907008e+02 5.0400000000e-03 0.0000e+00 -1.0000e+00
  1000101  2    1    2    0    0 +2.4398839225e+01 -5.0957739217e+00 +9.4346742507e+01 1.5865846014e+02 1.2509967580e+02 4.6916e+01 0.0000e+00
 -1000101  2    1    2    0    0 -2.4398839225e+01 +5.0957739217e+00 -5.5469071455e+01 1.3909735104e+02 1.2509989972e+02 1.3538e+02 0.0000e+00
       11  1    3    3    0    0 +3.2775183116e-02 +8.2581311700e-02 +1.3338321941e-01 1.6026612247e-01 5.1100000000e-04 0.0000e+00 1.0000e+00
      255  1    3    3    0    0 +2.4366064042e+01 -5.1783552334e+00 +9.4213359287e+01 1.5849819402e+02 1.2500000000e+02 0.0000e+00 0.0000e+00
      -11  1    4    4    0    0 -7.9559612305e-02 -1.9514875877e-02 -1.3274478538e-01 1.5598718363e-01 5.1100000000e-04 0.0000e+00 -1.0000e+00
      255  1    4    4    0    0 -2.4319279613e+01 +5.1152887976e+00 -5.5336326669e+01 1.3894136385e+02 1.2500000000e+02 0.0000e+00 0.0000e+00
<mgrwt>
<rscale>  0 0.29520679E+03</rscale>
<asrwt>0</asrwt>
<pdfrwt beam="1">  1        1 0.19913703E-01 0.29520679E+03</pdfrwt>
<pdfrwt beam="2">  1       -1 0.25894883E-01 0.29520679E+03</pdfrwt>
<totfact> 0.33624944E+03</totfact>
</mgrwt>
</event>
<event>
 8      1 +1.6198320e-01 2.73644800e+02 7.81860800e-03 1.09921200e-01
       -2 -1    0    0    0  501 -0.0000000000e+00 +0.0000000000e+00 +9.1300660484e+00 9.1300664045e+00 2.5500000000e-03 0.0000e+00 -1.0000e+00
        2 -1    0    0  501    0 +0.0000000000e+00 -0.0000000000e+00 -2.0504085989e+03 2.0504085989e+03 2.5500000000e-03 0.0000e+00 1.0000e+00
  1000101  2    1    2    0    0 -4.2414686406e+01 +3.1136259730e+01 -8.8987159907e+02 9.0016106555e+02 1.2509999523e+02 3.3282e+02 0.0000e+00
 -1000101  2    1    2    0    0 +4.2414686406e+01 -3.1136259730e+01 -1.1514069338e+03 1.1593775998e+03 1.2510003743e+02 4.4039e+01 0.0000e+00
       11  1    3    3    0    0 -1.1789958811e-01 +3.2187882629e-02 -1.2954235229e+00 1.3011759057e+00 5.1100000000e-04 0.0000e+00 1.0000e+00
      255  1    3    3    0    0 -4.2296786818e+01 +3.1104071847e+01 -8.8857617555e+02 8.9885988965e+02 1.2500000000e+02 0.0000e+00 0.0000e+00
      -11  1    4    4    0    0 +8.9690899250e-02 -1.1496350124e-01 -1.3717942654e+00 1.3795219577e+00 5.1100000000e-04 0.0000e+00 -1.0000e+00
      255  1    4    4    0    0 +4.2324995507e+01 -3.1021296228e+01 -1.1500351395e+03 1.1579980778e+03 1.2500000000e+02 0.0000e+00 0.0000e+00
<mgrwt>
<rscale>  0 0.27364478E+03</rscale>
<asrwt>0</asrwt>
<pdfrwt beam="1">  1        2 0.31544711E+00 0.27364478E+03</pdfrwt>
<pdfrwt beam="2">  1       -2 0.14046272E-02 0.27364478E+03</pdfrwt>
<totfact> 0.90767984E+03</totfact>
</mgrwt>
</event>
<event>
 8      1 +1.6198320e-01 5.46222200e+02 7.81860800e-03 1.00237200e-01
       -2 -1    0    0    0  501 -0.0000000000e+00 +0.0000000000e+00 +5.5594323950e+01 5.5594324008e+01 2.5500000000e-03 0.0000e+00 -1.0000e+00
        2 -1    0    0  501    0 +0.0000000000e+00 -0.0000000000e+00 -1.3416777245e+03 1.3416777245e+03 2.5500000000e-03 0.0000e+00 1.0000e+00
  1000101  2    1    2    0    0 +8.7202876237e+01 -1.1698043133e+02 -1.4667876625e+02 2.4177142448e+02 1.2509995319e+02 2.2513e+02 0.0000e+00
 -1000101  2    1    2    0    0 -8.7202876237e+01 +1.1698043133e+02 -1.1394046343e+03 1.1555006240e+03 1.2509999415e+02 2.9665e+01 0.0000e+00
       11  1    3    3    0    0 -4.2469079533e-02 -2.7498015146e-03 -6.2559433170e-02 7.5664575097e-02 5.1100000000e-04 0.0000e+00 1.0000e+00
      255  1    3    3    0    0 +8.7245345317e+01 -1.1697768152e+02 -1.4661620682e+02 2.4169575990e+02 1.2500000000e+02 0.0000e+00 0.0000e+00
      -11  1    4    4    0    0 -6.5847091418e-02 +1.1911403043e-01 -4.0630867340e-01 4.2849853079e-01 5.1100000000e-04 0.0000e+00 -1.0000e+00
      255  1    4    4    0    0 -8.7137029146e+01 +1.1686131730e+02 -1.1389983256e+03 1.1550721255e+03 1.2500000000e+02 0.0000e+00 0.0000e+00
<mgrwt>
<rscale>  0 0.54622217E+03</rscale>
<asrwt>0</asrwt>
<pdfrwt beam="1">  1        2 0.20641193E+00 0.54622217E+03</pdfrwt>
<pdfrwt beam="2">  1       -2 0.85529739E-02 0.54622217E+03</pdfrwt>
<totfact> 0.14031311E+03</totfact>
</mgrwt>
</event>
<event>
 8      1 +1.6198320e-01 2.61301300e+02 7.81860800e-03 1.10636400e-01
       -2 -1    0    0    0  501 -0.0000000000e+00 +0.0000000000e+00 +5.5196593818e+01 5.5196593877e+01 2.5500000000e-03 0.0000e+00 -1.0000e+00
        2 -1    0    0  501    0 +0.0000000000e+00 -0.0000000000e+00 -3.0925072396e+02 3.0925072397e+02 2.5500000000e-03 0.0000e+00 1.0000e+00
  1000101  2    1    2    0    0 +3.5245765916e+01 +1.3276654724e+01 -1.2564659642e+02 1.8126123173e+02 1.2510009337e+02 1.3543e+02 0.0000e+00
 -1000101  2    1    2    0    0 -3.5245765916e+01 -1.3276654724e+01 -1.2840753372e+02 1.8318608611e+02 1.2510041508e+02 3.0931e+02 0.0000e+00
       11  1    3    3    0    0 +4.7331503310e-02 +5.6366745344e-02 -2.3125652947e-01 2.4268771030e-01 5.1100000000e-04 0.0000e+00 1.0000e+00
      255  1    3    3    0    0 +3.5198434413e+01 +1.3220287978e+01 -1.2541533990e+02 1.8101854402e+02 1.2500000000e+02 0.0000e+00 0.0000e+00
      -11  1    4    4    0    0 +4.6912856591e-03 -8.9685921232e-02 -2.8754574562e-02 9.4300897705e-02 5.1100000000e-04 0.0000e+00 -1.0000e+00
      255  1    4    4    0    0 -3.5250457202e+01 -1.3186968803e+01 -1.2837877914e+02 1.8309178521e+02 1.2500000000e+02 0.0000e+00 0.0000e+00
<mgrwt>
<rscale>  0 0.26130126E+03</rscale>
<asrwt>0</asrwt>
<pdfrwt beam="1">  1        2 0.47577033E-01 0.26130126E+03</pdfrwt>
<pdfrwt beam="2">  1       -2 0.84917838E-02 0.26130126E+03</pdfrwt>
<totfact> 0.90065394E+03</totfact>
</mgrwt>
</event>
<event>
 8      1 +1.6198320e-01 3.20279400e+02 7.81860800e-03 1.07552100e-01
        2 -1    0    0  501    0 +0.0000000000e+00 +0.0000000000e+00 +1.6786601888e+02 1.6786601889e+02 2.5500000000e-03 0.0000e+00 1.0000e+00
       -2 -1    0    0    0  501 -0.0000000000e+00 -0.0000000000e+00 -1.5276901241e+02 1.5276901243e+02 2.5500000000e-03 0.0000e+00 -1.0000e+00
  1000101  2    1    2    0    0 +1.5221026911e+01 +9.8581187569e+01 +1.4248039261e+01 1.6063292278e+02 1.2509995626e+02 5.1181e+01 0.0000e+00
 -1000101  2    1    2    0    0 -1.5221026911e+01 -9.8581187569e+01 +8.4896720651e-01 1.6000210854e+02 1.2510005512e+02 7.3923e+00 0.0000e+00
       11  1    3    3    0    0 +6.9446242535e-02 +9.4260529779e-04 +5.7328430553e-02 9.0058198839e-02 5.1100000000e-04 0.0000e+00 1.0000e+00
      255  1    3    3    0    0 +1.5151580668e+01 +9.8580244964e+01 +1.4190710830e+01 1.6054286458e+02 1.2500000000e+02 0.0000e+00 0.0000e+00
      -11  1    4    4    0    0 +5.8857261418e-02 +1.7284805792e-02 -8.3120893291e-03 6.1905522239e-02 5.1100000000e-04 0.0000e+00 -1.0000e+00
      255  1    4    4    0    0 -1.5279884172e+01 -9.8598472375e+01 +8.5727929584e-01 1.5994020302e+02 1.2500000000e+02 0.0000e+00 0.0000e+00
<mgrwt>
<rscale>  0 0.32027942E+03</rscale>
<asrwt>0</asrwt>
<pdfrwt beam="1">  1        2 0.25825541E-01 0.32027942E+03</pdfrwt>
<pdfrwt beam="2">  1       -2 0.23502925E-01 0.32027942E+03</pdfrwt>
<totfact> 0.32920613E+03</totfact>
</mgrwt>
</event>
<event>
 8      1 +1.6198320e-01 3.76998900e+02 7.81860800e-03 1.05204900e-01
        2 -1    0    0  501    0 +0.0000000000e+00 +0.0000000000e+00 +5.8331702741e+02 5.8331702741e+02 2.5500000000e-03 0.0000e+00 -1.0000e+00
       -2 -1    0    0    0  501 -0.0000000000e+00 -0.0000000000e+00 -6.0913765928e+01 6.0913765982e+01 2.5500000000e-03 0.0000e+00 1.0000e+00
  1000101  2    1    2    0    0 -1.2921411580e+01 -1.1029854576e+02 +1.1272531075e+02 2.0171664052e+02 1.2509946165e+02 9.3639e+00 0.0000e+00
 -1000101  2    1    2    0    0 +1.2921411580e+01 +1.1029854576e+02 +4.0967795073e+02 4.4251415287e+02 1.2510004038e+02 7.8770e+01 0.0000e+00
       11  1    3    3    0    0 +6.1618760053e-02 -1.6838095879e-01 +9.5480311172e-02 2.0313977901e-01 5.1100000000e-04 0.0000e+00 1.0000e+00
      255  1    3    3    0    0 -1.2983030340e+01 -1.1013016481e+02 +1.1262983044e+02 2.0151350074e+02 1.2500000000e+02 0.0000e+00 0.0000e+00
      -11  1    4    4    0    0 +9.9363697632e-02 +1.3011765169e-01 +5.1471280471e-01 5.4012339344e-01 5.1100000000e-04 0.0000e+00 -1.0000e+00
      255  1    4    4    0    0 +1.2822047882e+01 +1.1016842811e+02 +4.0916323792e+02 4.4197402948e+02 1.2500000000e+02 0.0000e+00 0.0000e+00
<mgrwt>
<rscale>  0 0.37699887E+03</rscale>
<asrwt>0</asrwt>
<pdfrwt beam="1">  1        2 0.89741079E-01 0.37699887E+03</pdfrwt>
<pdfrwt beam="2">  1       -2 0.93713488E-02 0.37699887E+03</pdfrwt>
<totfact> 0.38587258E+03</totfact>
</mgrwt>
</event>
<event>
 8      1 +1.6198320e-01 2.91097500e+02 7.81860800e-03 1.08977800e-01
        2 -1    0    0  501    0 +0.0000000000e+00 +0.0000000000e+00 +2.7787694019e+02 2.7787694021e+02 2.5500000000e-03 0.0000e+00 1.0000e+00
       -2 -1    0    0    0  501 -0.0000000000e+00 -0.0000000000e+00 -7.6236740815e+01 7.6236740857e+01 2.5500000000e-03 0.0000e+00 -1.0000e+00
  1000101  2    1    2    0    0 +6.9996986090e+00 +2.7320317430e+01 +1.7077718463e+01 1.2937191885e+02 1.2510015745e+02 3.1986e+01 0.0000e+00
 -1000101  2    1    2    0    0 -6.9996986090e+00 -2.7320317430e+01 +1.8456248092e+02 2.2474176221e+02 1.2510057871e+02 4.8985e+01 0.0000e+00
       11  1    3    3    0    0 -4.2384515187e-03 -4.2617653378e-02 +8.9728704861e-02 9.9427010660e-02 5.1100000000e-04 0.0000e+00 1.0000e+00
      255  1    3    3    0    0 +7.0039370605e+00 +2.7362935083e+01 +1.6987989758e+01 1.2927249184e+02 1.2500000000e+02 0.0000e+00 0.0000e+00
      -11  1    4    4    0    0 +5.1225199073e-02 -8.6240167507e-02 +6.9921477284e-02 1.2227289814e-01 5.1100000000e-04 0.0000e+00 -1.0000e+00
      255  1    4    4    0    0 -7.0509238081e+00 -2.7234077263e+01 +1.8449255944e+02 2.2461948931e+02 1.2500000000e+02 0.0000e+00 0.0000e+00
<mgrwt>
<rscale>  0 0.29109746E+03</rscale>
<asrwt>0</asrwt>
<pdfrwt beam="1">  1        2 0.42750298E-01 0.29109746E+03</pdfrwt>
<pdfrwt beam="2">  1       -2 0.11728729E-01 0.29109746E+03</pdfrwt>
<totfact> 0.60718848E+03</totfact>
</mgrwt>
</event>
<event>
 8      1 +1.6198320e-01 5.28505400e+02 7.81860800e-03 1.00659500e-01
       -2 -1    0    0    0  501 -0.0000000000e+00 +0.0000000000e+00 +8.2184411418e+01 8.2184411458e+01 2.5500000000e-03 0.0000e+00 -1.0000e+00
        2 -1    0    0  501    0 +0.0000000000e+00 -0.0000000000e+00 -8.4966842061e+02 8.4966842062e+02 2.5500000000e-03 0.0000e+00 1.0000e+00
  1000101  2    1    2    0    0 +5.5588648060e+01 -2.0781153280e+02 -2.2698965119e+02 3.3682351402e+02 1.2510014745e+02 5.4886e+02 0.0000e+00
 -1000101  2    1    2    0    0 -5.5588648060e+01 +2.0781153280e+02 -5.4049435801e+02 5.9502931806e+02 1.2509998941e+02 9.5297e+01 0.0000e+00
       11  1    3    3    0    0 +9.9958478619e-02 -3.5403589148e-01 -3.6003506319e-01 5.1474131149e-01 5.1100000000e-04 0.0000e+00 1.0000e+00
      255  1    3    3    0    0 +5.5488689581e+01 -2.0745749691e+02 -2.2662961612e+02 3.3630877271e+02 1.2500000000e+02 0.0000e+00 0.0000e+00
      -11  1    4    4    0    0 -4.4591352110e-02 +3.4609349327e-01 -7.2555621637e-01 8.0510942051e-01 5.1100000000e-04 0.0000e+00 -1.0000e+00
      255  1    4    4    0    0 -5.5544056708e+01 +2.0746543931e+02 -5.3976880179e+02 5.9422420864e+02 1.2500000000e+02 0.0000e+00 0.0000e+00
<mgrwt>
<rscale>  0 0.52850544E+03</rscale>
<asrwt>0</asrwt>
<pdfrwt beam="1">  1        2 0.13071821E+00 0.52850544E+03</pdfrwt>
<pdfrwt beam="2">  1       -2 0.12643756E-01 0.52850544E+03</pdfrwt>
<totfact> 0.14885499E+03</totfact>
</mgrwt>
</event>
<event>
 8      1 +1.6198320e-01 3.22851600e+02 7.81860800e-03 1.07434400e-01
       -1 -1    0    0    0  501 -0.0000000000e+00 +0.0000000000e+00 +9.1462557485e+01 9.1462557624e+01 5.0400000000e-03 0.0000e+00 -1.0000e+00
        1 -1    0    0  501    0 +0.0000000000e+00 -0.0000000000e+00 -2.8490661545e+02 2.8490661549e+02 5.0400000000e-03 0.0000e+00 1.0000e+00
  1000101  2    1    2    0    0 -2.8272222920e+01 +5.8820179245e+00 +1.7346475814e+01 1.2955629306e+02 1.2510002448e+02 6.7710e+00 0.0000e+00
 -1000101  2    1    2    0    0 +2.8272222920e+01 -5.8820179245e+00 -2.1079053377e+02 2.4681288006e+02 1.2510008757e+02 4.9879e+01 0.0000e+00
       11  1    3    3    0    0 -3.4921860440e-02 +8.9555614468e-02 -3.7561230733e-02 1.0320296311e-01 5.1100000000e-04 0.0000e+00 1.0000e+00
      255  1    3    3    0    0 -2.8237301060e+01 +5.7924623100e+00 +1.7384037044e+01 1.2945309009e+02 1.2500000000e+02 0.0000e+00 0.0000e+00
      -11  1    4    4    0    0 -7.9145551240e-02 +8.0999191558e-04 -1.0878892790e-01 1.3453611531e-01 5.1100000000e-04 0.0000e+00 -1.0000e+00
      255  1    4    4    0    0 +2.8351368472e+01 -5.8828279164e+00 -2.1068174485e+02 2.4667834394e+02 1.2500000000e+02 0.0000e+00 0.0000e+00
<mgrwt>
<rscale>  0 0.32285159E+03</rscale>
<asrwt>0</asrwt>
<pdfrwt beam="1">  1        1 0.43831787E-01 0.32285159E+03</pdfrwt>
<pdfrwt beam="2">  1       -1 0.14071163E-01 0.32285159E+03</pdfrwt>
<totfact> 0.33323456E+03</totfact>
</mgrwt>
</event>
<event>
 8      1 +1.6198320e-01 3.48845900e+02 7.81860800e-03 1.06309000e-01
        1 -1    0    0  501    0 +0.0000000000e+00 +0.0000000000e+00 +1.0503880359e+02 1.0503880371e+02 5.0400000000e-03 0.0000e+00 1.0000e+00
       -1 -1    0    0    0  501 -0.0000000000e+00 -0.0000000000e+00 -2.8963931840e+02 2.8963931845e+02 5.0400000000e-03 0.0000e+00 -1.0000e+00
  1000101  2    1    2    0    0 +8.4626338254e+01 -6.0116867428e+01 -1.6383459634e+02 2.3079743679e+02 1.2510006792e+02 1.2597e+01 0.0000e+00
 -1000101  2    1    2    0    0 -8.4626338254e+01 +6.0116867428e+01 -2.0765918478e+01 1.6388068537e+02 1.2509996319e+02 1.2101e+02 0.0000e+00
       11  1    3    3    0    0 +8.3651233950e-02 -1.2141848450e-01 -6.0231972316e-02 1.5927375468e-01 5.1100000000e-04 0.0000e+00 1.0000e+00
      255  1    3    3    0    0 +8.4542687020e+01 -5.9995448943e+01 -1.6377436437e+02 2.3063816303e+02 1.2500000000e+02 0.0000e+00 0.0000e+00
      -11  1    4    4    0    0 -1.0975303646e-01 +1.0703586089e-01 -1.0432697377e-01 1.8543673613e-01 5.1100000000e-04 0.0000e+00 -1.0000e+00
      255  1    4    4    0    0 -8.4516585217e+01 +6.0009831567e+01 -2.0661591505e+01 1.6369524863e+02 1.2500000000e+02 0.0000e+00 0.0000e+00
<mgrwt>
<rscale>  0 0.34884591E+03</rscale>
<asrwt>0</asrwt>
<pdfrwt beam="1">  1        1 0.16159816E-01 0.34884591E+03</pdfrwt>
<pdfrwt beam="2">  1       -1 0.44559895E-01 0.34884591E+03</pdfrwt>
<totfact> 0.17213978E+03</totfact>
</mgrwt>
</event>
<event>
 8      1 +1.6198320e-01 4.03111400e+02 7.81860800e-03 1.04270800e-01
       -2 -1    0    0    0  501 -0.0000000000e+00 +0.0000000000e+00 +2.1741501129e+02 2.1741501131e+02 2.5500000000e-03 0.0000e+00 -1.0000e+00
        2 -1    0    0  501    0 +0.0000000000e+00 -0.0000000000e+00 -1.8685324529e+02 1.8685324531e+02 2.5500000000e-03 0.0000e+00 1.0000e+00
  1000101  2    1    2    0    0 -1.4606375929e+02 -5.9030317348e+01 +2.7759682738e+00 2.0118880014e+02 1.2510006858e+02 3.4824e+01 0.0000e+00
 -1000101  2    1    2    0    0 +1.4606375929e+02 +5.9030317348e+01 +2.7785797731e+01 2.0307945647e+02 1.2510001975e+02 1.8277e+02 0.0000e+00
       11  1    3    3    0    0 +2.3959140752e-02 +1.8118351535e-02 -2.5089508237e-02 3.9141533343e-02 5.1100000000e-04 0.0000e+00 1.0000e+00
      255  1    3    3    0    0 -1.4608771843e+02 -5.9048435700e+01 +2.8010577821e+00 2.0114965861e+02 1.2500000000e+02 0.0000e+00 0.0000e+00
      -11  1    4    4    0    0 +2.0657941993e-01 -6.4713785524e-03 +6.8071973462e-02 2.1760282667e-01 5.1100000000e-04 0.0000e+00 -1.0000e+00
      255  1    4    4    0    0 +1.4585717987e+02 +5.9036788727e+01 +2.7717725758e+01 2.0286185364e+02 1.2500000000e+02 0.0000e+00 0.0000e+00
<mgrwt>
<rscale>  0 0.40311140E+03</rscale>
<asrwt>0</asrwt>
<pdfrwt beam="1">  1        2 0.28746653E-01 0.40311140E+03</pdfrwt>
<pdfrwt beam="2">  1       -2 0.33448463E-01 0.40311140E+03</pdfrwt>
<totfact> 0.15488104E+03</totfact>
</mgrwt>
</event>
<event>
 8      1 +1.6198320e-01 3.78493800e+02 7.81860800e-03 1.05149200e-01
       -2 -1    0    0    0  501 -0.0000000000e+00 +0.0000000000e+00 +1.9944680538e+01 1.9944680701e+01 2.5500000000e-03 0.0000e+00 -1.0000e+00
        2 -1    0    0  501    0 +0.0000000000e+00 -0.0000000000e+00 -1.7956861628e+03 1.7956861628e+03 2.5500000000e-03 0.0000e+00 1.0000e+00
  1000101  2    1    2    0    0 +7.2990093743e+01 +1.7625023147e+01 -1.4660256539e+03 1.4732682805e+03 1.2510001238e+02 1.5539e+02 0.0000e+00
 -1000101  2    1    2    0    0 -7.2990093743e+01 -1.7625023147e+01 -3.0971582837e+02 3.4236256305e+02 1.2510009996e+02 8.8448e+00 0.0000e+00
       11  1    3    3    0    0 +7.6893783277e-03 +1.0019388799e-01 -1.1773077310e+00 1.1815886325e+00 5.1100000000e-04 0.0000e+00 1.0000e+00
      255  1    3    3    0    0 +7.2982404364e+01 +1.7524829259e+01 -1.4648483462e+03 1.4720866919e+03 1.2500000000e+02 0.0000e+00 0.0000e+00
      -11  1    4    4    0    0 +2.2862844330e-03 +6.3845200251e-02 -2.6389767315e-01 2.7152104837e-01 5.1100000000e-04 0.0000e+00 -1.0000e+00
      255  1    4    4    0    0 -7.2992380027e+01 -1.7688868348e+01 -3.0945193070e+02 3.4209104200e+02 1.2500000000e+02 0.0000e+00 0.0000e+00
<mgrwt>
<rscale>  0 0.37849379E+03</rscale>
<asrwt>0</asrwt>
<pdfrwt beam="1">  1        2 0.27625928E+00 0.37849379E+03</pdfrwt>
<pdfrwt beam="2">  1       -2 0.30684138E-02 0.37849379E+03</pdfrwt>
<totfact> 0.38920674E+03</totfact>
</mgrwt>
</event>
<event>
 8      1 +1.6198320e-01 3.89557200e+02 7.81860800e-03 1.04745700e-01
       -2 -1    0    0    0  501 -0.0000000000e+00 +0.0000000000e+00 +8.8547391189e+01 8.8547391226e+01 2.5500000000e-03 0.0000e+00 -1.0000e+00
        2 -1    0    0  501    0 +0.0000000000e+00 -0.0000000000e+00 -4.2845639801e+02 4.2845639802e+02 2.5500000000e-03 0.0000e+00 1.0000e+00
  1000101  2    1    2    0    0 +1.1160418073e+02 +9.5503948130e+01 -2.0537472675e+02 2.8178940701e+02 1.2509993705e+02 1.2889e+02 0.0000e+00
 -1000101  2    1    2    0    0 -1.1160418073e+02 -9.5503948130e+01 -1.3453428007e+02 2.3521438223e+02 1.2509930387e+02 3.0961e+01 0.0000e+00
       11  1    3    3    0    0 +2.1453980137e-01 +8.4844944158e-02 -2.5821286115e-01 3.4626598693e-01 5.1100000000e-04 0.0000e+00 1.0000e+00
      255  1    3    3    0    0 +1.1138964093e+02 +9.5419103186e+01 -2.0511651389e+02 2.8144314102e+02 1.2500000000e+02 0.0000e+00 0.0000e+00
      -11  1    4    4    0    0 -1.3695581385e-01 -1.5914416593e-01 -6.5807144373e-02 2.2003318356e-01 5.1100000000e-04 0.0000e+00 -1.0000e+00
      255  1    4    4    0    0 -1.1146722492e+02 -9.5344803964e+01 -1.3446847293e+02 2.3499434905e+02 1.2500000000e+02 0.0000e+00 0.0000e+00
<mgrwt>
<rscale>  0 0.38955717E+03</rscale>
<asrwt>0</asrwt>
<pdfrwt beam="1">  1        2 0.65916368E-01 0.38955717E+03</pdfrwt>
<pdfrwt beam="2">  1       -2 0.13622676E-01 0.38955717E+03</pdfrwt>
<totfact> 0.29887878E+03</totfact>
</mgrwt>
</event>
<event>
 8      1 +1.6198320e-01 3.40818200e+02 7.81860800e-03 1.06644800e-01
       -2 -1    0    0    0  501 -0.0000000000e+00 +0.0000000000e+00 +2.2842374261e+01 2.2842374404e+01 2.5500000000e-03 0.0000e+00 -1.0000e+00
        2 -1    0    0  501    0 +0.0000000000e+00 -0.0000000000e+00 -1.2712890245e+03 1.2712890245e+03 2.5500000000e-03 0.0000e+00 1.0000e+00
  1000101  2    1    2    0    0 +2.8069985344e+01 +4.7704857324e+01 -2.3837842478e+02 2.7484168948e+02 1.2509997357e+02 2.1201e+02 0.0000e+00
 -1000101  2    1    2    0    0 -2.8069985344e+01 -4.7704857324e+01 -1.0100682254e+03 1.0192897094e+03 1.2510001664e+02 9.7826e+00 0.0000e+00
       11  1    3    3    0    0 -5.3980942414e-02 +6.0118595962e-02 -2.9915812947e-01 3.0987745203e-01 5.1100000000e-04 0.0000e+00 1.0000e+00
      255  1    3    3    0    0 +2.8123966286e+01 +4.7644738728e+01 -2.3807926665e+02 2.7453181203e+02 1.2500000000e+02 0.0000e+00 0.0000e+00
      -11  1    4    4    0    0 -2.9845928081e-02 +3.3439172985e-02 -8.8273396849e-02 9.9002077887e-02 5.1100000000e-04 0.0000e+00 -1.0000e+00
      255  1    4    4    0    0 -2.8040139416e+01 -4.7738296497e+01 -1.0099799520e+03 1.0191907073e+03 1.2500000000e+02 0.0000e+00 0.0000e+00
<mgrwt>
<rscale>  0 0.34081819E+03</rscale>
<asrwt>0</asrwt>
<pdfrwt beam="1">  1        2 0.19558287E+00 0.34081819E+03</pdfrwt>
<pdfrwt beam="2">  1       -2 0.35142124E-02 0.34081819E+03</pdfrwt>
<totfact> 0.61044023E+03</totfact>
</mgrwt>
</event>
<event>
 8      1 +1.6198320e-01 2.60100600e+02 7.81860800e-03 1.10708300e-01
       -2 -1    0    0    0  501 -0.0000000000e+00 +0.0000000000e+00 +8.1759066045e+01 8.1759066084e+01 2.5500000000e-03 0.0000e+00 -1.0000e+00
        2 -1    0    0  501    0 +0.0000000000e+00 -0.0000000000e+00 -2.0686481759e+02 2.0686481761e+02 2.5500000000e-03 0.0000e+00 1.0000e+00
  1000101  2    1    2    0    0 +7.6059311733e+00 -3.3748424494e+00 -1.0089530475e+02 1.6093199441e+02 1.2509997822e+02 2.1452e+01 0.0000e+00
 -1000101  2    1    2    0    0 -7.6059311733e+00 +3.3748424494e+00 -2.4210446796e+01 1.2769188929e+02 1.2509929298e+02 4.7355e+01 0.0000e+00
       11  1    3    3    0    0 +3.3271816058e-02 +9.3147953920e-02 -6.9698998983e-02 1.2100316791e-01 5.1100000000e-04 0.0000e+00 1.0000e+00
      255  1    3    3    0    0 +7.5726593573e+00 -3.4679904033e+00 -1.0082560575e+02 1.6081099124e+02 1.2500000000e+02 0.0000e+00 0.0000e+00
      -11  1    4    4    0    0 +4.0296624359e-02 +7.7485080322e-02 +2.7716631812e-02 9.1630935862e-02 5.1100000000e-04 0.0000e+00 -1.0000e+00
      255  1    4    4    0    0 -7.6462277977e+00 +3.2973573691e+00 -2.4238163428e+01 1.2760025835e+02 1.2500000000e+02 0.0000e+00 0.0000e+00
<mgrwt>
<rscale>  0 0.26010055E+03</rscale>
<asrwt>0</asrwt>
<pdfrwt beam="1">  1        2 0.31825356E-01 0.26010055E+03</pdfrwt>
<pdfrwt beam="2">  1       -2 0.12578318E-01 0.26010055E+03</pdfrwt>
<totfact> 0.74347656E+03</totfact>
</mgrwt>
</event>
<event>
 8      1 +1.6198320e-01 2.83000600e+02 7.81860800e-03 1.09406100e-01
        2 -1    0    0  501    0 +0.0000000000e+00 +0.0000000000e+00 +2.6017049116e+03 2.6017049116e+03 2.5500000000e-03 0.0000e+00 1.0000e+00
       -2 -1    0    0    0  501 -0.0000000000e+00 -0.0000000000e+00 -7.6958535382e+00 7.6958539607e+00 2.5500000000e-03 0.0000e+00 -1.0000e+00
  1000101  2    1    2    0    0 -2.3850843295e+01 -5.2514785325e+01 +1.5951698465e+03 1.6011069624e+03 1.2509996251e+02 8.6290e+01 0.0000e+00
 -1000101  2    1    2    0    0 +2.3850843295e+01 +5.2514785325e+01 +9.9883921156e+02 1.0082938031e+03 1.2509978991e+02 2.0702e+02 0.0000e+00
       11  1    3    3    0    0 +4.9615798526e-03 +2.6016632340e-02 +1.8029183040e+00 1.8031129068e+00 5.1100000000e-04 0.0000e+00 1.0000e+00
      255  1    3    3    0    0 -2.3855804875e+01 -5.2540801958e+01 +1.5933669282e+03 1.5993038495e+03 1.2500000000e+02 0.0000e+00 0.0000e+00
      -11  1    4    4    0    0 +2.1378690350e-02 +5.2057963405e-02 +1.0079110595e-01 1.1543910999e-01 5.1100000000e-04 0.0000e+00 -1.0000e+00
      255  1    4    4    0    0 +2.3829464605e+01 +5.2462727362e+01 +9.9873842045e+02 1.0081783640e+03 1.2500000000e+02 0.0000e+00 0.0000e+00
<mgrwt>
<rscale>  0 0.28300064E+03</rscale>
<asrwt>0</asrwt>
<pdfrwt beam="1">  1        2 0.40026303E+00 0.28300064E+03</pdfrwt>
<pdfrwt beam="2">  1       -2 0.11839753E-02 0.28300064E+03</pdfrwt>
<totfact> 0.58748981E+03</totfact>
</mgrwt>
</event>
<event>
 8      1 +1.6198320e-01 3.65346300e+02 7.81860800e-03 1.05648700e-01
        4 -1    0    0  501    0 +0.0000000000e+00 +0.0000000000e+00 +2.2915224696e+02 2.2915576621e+02 1.2700000000e+00 0.0000e+00 1.0000e+00
       -4 -1    0    0    0  501 -0.0000000000e+00 -0.0000000000e+00 -1.4561399986e+02 1.4561953803e+02 1.2700000000e+00 0.0000e+00 -1.0000e+00
  1000101  2    1    2    0    0 -3.8770396921e+01 +6.1689307495e+01 +1.5604787075e+02 2.1286059817e+02 1.2509988788e+02 1.1066e+01 0.0000e+00
 -1000101  2    1    2    0    0 +3.8770396921e+01 -6.1689307495e+01 -7.2509623654e+01 1.6191470607e+02 1.2510000872e+02 3.1554e+02 0.0000e+00
       11  1    3    3    0    0 +2.0273403209e-02 +4.8886108543e-02 -1.8054969617e-02 5.5920528751e-02 5.1100000000e-04 0.0000e+00 1.0000e+00
      255  1    3    3    0    0 -3.8790670324e+01 +6.1640421386e+01 +1.5606592572e+02 2.1280467764e+02 1.2500000000e+02 0.0000e+00 0.0000e+00
      -11  1    4    4    0    0 +3.3396631623e-02 -6.6039708140e-02 +4.8695551831e-02 8.8589479878e-02 5.1100000000e-04 0.0000e+00 -1.0000e+00
      255  1    4    4    0    0 +3.8737000290e+01 -6.1623267787e+01 -7.2558319206e+01 1.6182611659e+02 1.2500000000e+02 0.0000e+00 0.0000e+00
<mgrwt>
<rscale>  0 0.36534626E+03</rscale>
<asrwt>0</asrwt>
<pdfrwt beam="1">  1        4 0.35254888E-01 0.36534626E+03</pdfrwt>
<pdfrwt beam="2">  1       -4 0.22402851E-01 0.36534626E+03</pdfrwt>
<totfact> 0.27606479E+02</totfact>
</mgrwt>
</event>
<event>
 8      1 +1.6198320e-01 3.02948300e+02 7.81860800e-03 1.08377600e-01
       -1 -1    0    0    0  501 -0.0000000000e+00 +0.0000000000e+00 +2.2488162077e+01 2.2488162642e+01 5.0400000000e-03 0.0000e+00 -1.0000e+00
        1 -1    0    0  501    0 +0.0000000000e+00 -0.0000000000e+00 -1.0202890346e+03 1.0202890347e+03 5.0400000000e-03 0.0000e+00 1.0000e+00
  1000101  2    1    2    0    0 -9.4715961622e+00 -4.9808643114e+01 -2.6232565695e+02 2.9501757840e+02 1.2509999684e+02 1.0450e+02 0.0000e+00
 -1000101  2    1    2    0    0 +9.4715961622e+00 +4.9808643114e+01 -7.3547521561e+02 7.4775961889e+02 1.2510013110e+02 1.8361e+01 0.0000e+00
       11  1    3    3    0    0 -7.1734658644e-02 -8.5624341326e-02 -3.9339785837e-01 4.0894929413e-01 5.1100000000e-04 0.0000e+00 1.0000e+00
      255  1    3    3    0    0 -9.3998615035e+00 -4.9723018773e+01 -2.6193225909e+02 2.9460862911e+02 1.2500000000e+02 0.0000e+00 0.0000e+00
      -11  1    4    4    0    0 +8.8196757653e-02 +5.8782546707e-02 -9.7651933216e-01 9.8225471394e-01 5.1100000000e-04 0.0000e+00 -1.0000e+00
      255  1    4    4    0    0 +9.3833994045e+00 +4.9749860568e+01 -7.3449869628e+02 7.4677736418e+02 1.2500000000e+02 0.0000e+00 0.0000e+00
<mgrwt>
<rscale>  0 0.30294835E+03</rscale>
<asrwt>0</asrwt>
<pdfrwt beam="1">  1        1 0.15696751E+00 0.30294835E+03</pdfrwt>
<pdfrwt beam="2">  1       -1 0.34597181E-02 0.30294835E+03</pdfrwt>
<totfact> 0.47215503E+03</totfact>
</mgrwt>
</event>
<event>
 8      1 +1.6198320e-01 2.62025000e+02 7.81860800e-03 1.10593300e-01
       -1 -1    0    0    0  501 -0.0000000000e+00 +0.0000000000e+00 +1.4931312439e+02 1.4931312447e+02 5.0400000000e-03 0.0000e+00 -1.0000e+00
        1 -1    0    0  501    0 +0.0000000000e+00 -0.0000000000e+00 -1.1495491648e+02 1.1495491659e+02 5.0400000000e-03 0.0000e+00 1.0000e+00
  1000101  2    1    2    0    0 -8.8983823966e+00 +1.6124278441e+01 -1.7394755777e+01 1.2763933451e+02 1.2510015436e+02 2.3378e+01 0.0000e+00
 -1000101  2    1    2    0    0 +8.8983823966e+00 -1.6124278441e+01 +5.1752963688e+01 1.3662870655e+02 1.2509940303e+02 3.0945e+01 0.0000e+00
       11  1    3    3    0    0 +4.7834587926e-02 +9.5049735124e-02 -3.2260164479e-02 1.1119163315e-01 5.1100000000e-04 0.0000e+00 1.0000e+00
      255  1    3    3    0    0 -8.9462169846e+00 +1.6029228706e+01 -1.7362495613e+01 1.2752814287e+02 1.2500000000e+02 0.0000e+00 0.0000e+00
      -11  1    4    4    0    0 -6.4136972863e-02 -2.0456313251e-02 +1.1400625370e-01 1.3239976981e-01 5.1100000000e-04 0.0000e+00 -1.0000e+00
      255  1    4    4    0    0 +8.9625193695e+00 -1.6103822127e+01 +5.1638957434e+01 1.3649630678e+02 1.2500000000e+02 0.0000e+00 0.0000e+00
<mgrwt>
<rscale>  0 0.26202502E+03</rscale>
<asrwt>0</asrwt>
<pdfrwt beam="1">  1        1 0.17685372E-01 0.26202502E+03</pdfrwt>
<pdfrwt beam="2">  1       -1 0.22971250E-01 0.26202502E+03</pdfrwt>
<totfact> 0.47668828E+03</totfact>
</mgrwt>
</event>
<event>
 8      1 +1.6198320e-01 4.46289900e+02 7.81860800e-03 1.02883400e-01
       -2 -1    0    0    0  501 -0.0000000000e+00 +0.0000000000e+00 +3.9208116711e+01 3.9208116794e+01 2.5500000000e-03 0.0000e+00 -1.0000e+00
        2 -1    0    0  501    0 +0.0000000000e+00 -0.0000000000e+00 -1.2699839696e+03 1.2699839696e+03 2.5500000000e-03 0.0000e+00 1.0000e+00
  1000101  2    1    2    0    0 +1.5044988886e+02 +7.8316034187e+00 -9.2924798201e+02 9.4965695731e+02 1.2510004568e+02 4.6822e+00 0.0000e+00
 -1000101  2    1    2    0    0 -1.5044988886e+02 -7.8316034187e+00 -3.0152787087e+02 3.5953512907e+02 1.2509975642e+02 2.2538e+02 0.0000e+00
       11  1    3    3    0    0 +2.0870253038e-01 +3.7417253632e-03 -1.4639988637e+00 1.4788048150e+00 5.1100000000e-04 0.0000e+00 1.0000e+00
      255  1    3    3    0    0 +1.5024118633e+02 +7.8278616933e+00 -9.2778398315e+02 9.4817815250e+02 1.2500000000e+02 0.0000e+00 0.0000e+00
      -11  1    4    4    0    0 -2.3959346880e-01 -7.2207448012e-02 -4.1298338034e-01 4.8288143410e-01 5.1100000000e-04 0.0000e+00 -1.0000e+00
      255  1    4    4    0    0 -1.5021029539e+02 -7.7593959707e+00 -3.0111488749e+02 3.5905224764e+02 1.2500000000e+02 0.0000e+00 0.0000e+00
<mgrwt>
<rscale>  0 0.44628995E+03</rscale>
<asrwt>0</asrwt>
<pdfrwt beam="1">  1        2 0.19538212E+00 0.44628995E+03</pdfrwt>
<pdfrwt beam="2">  1       -2 0.60320189E-02 0.44628995E+03</pdfrwt>
<totfact> 0.26782538E+03</totfact>
</mgrwt>
</event>
<event>
 8      1 +1.6198320e-01 2.99185400e+02 7.81860800e-03 1.08564900e-01
        2 -1    0    0  501    0 +0.0000000000e+00 +0.0000000000e+00 +2.3737475328e+03 2.3737475328e+03 2.5500000000e-03 0.0000e+00 1.0000e+00
       -2 -1    0    0    0  501 -0.0000000000e+00 -0.0000000000e+00 -9.4272785836e+00 9.4272789284e+00 2.5500000000e-03 0.0000e+00 -1.0000e+00
  1000101  2    1    2    0    0 -7.7549845757e+01 +2.5329187864e+01 +1.1143787269e+03 1.1243422678e+03 1.2510012770e+02 9.5568e+01 0.0000e+00
 -1000101  2    1    2    0    0 +7.7549845757e+01 -2.5329187864e+01 +1.2499415274e+03 1.2588325440e+03 1.2509998205e+02 1.5453e+02 0.0000e+00
       11  1    3    3    0    0 -9.8898214809e-02 -1.8429665114e-02 +1.6294761258e+00 1.6325787011e+00 5.1100000000e-04 0.0000e+00 1.0000e+00
      255  1    3    3    0    0 -7.7450947542e+01 +2.5347617529e+01 +1.1127492507e+03 1.1227096891e+03 1.2500000000e+02 0.0000e+00 0.0000e+00
      -11  1    4    4    0    0 +5.0768881896e-02 +4.9955770422e-02 +2.3962261758e-01 2.4998463622e-01 5.1100000000e-04 0.0000e+00 -1.0000e+00
      255  1    4    4    0    0 +7.7499076875e+01 -2.5379143635e+01 +1.2497019048e+03 1.2585825593e+03 1.2500000000e+02 0.0000e+00 0.0000e+00
<mgrwt>
<rscale>  0 0.29918543E+03</rscale>
<asrwt>0</asrwt>
<pdfrwt beam="1">  1        2 0.36519198E+00 0.29918543E+03</pdfrwt>
<pdfrwt beam="2">  1       -2 0.14503504E-02 0.29918543E+03</pdfrwt>
<totfact> 0.58219934E+03</totfact>
</mgrwt>
</event>
<event>
 8      1 +1.6198320e-01 3.60309100e+02 7.81860800e-03 1.05846200e-01
        2 -1    0    0  501    0 +0.0000000000e+00 +0.0000000000e+00 +4.4424034622e+02 4.4424034623e+02 2.5500000000e-03 0.0000e+00 1.0000e+00
       -2 -1    0    0    0  501 -0.0000000000e+00 -0.0000000000e+00 -7.3058777066e+01 7.3058777110e+01 2.5500000000e-03 0.0000e+00 -1.0000e+00
  1000101  2    1    2    0    0 +1.2216938275e+02 -4.3312218819e+01 +1.8858178723e+02 2.6079572759e+02 1.2510001868e+02 1.0160e+02 0.0000e+00
 -1000101  2    1    2    0    0 -1.2216938275e+02 +4.3312218819e+01 +1.8259978193e+02 2.5650339575e+02 1.2509998117e+02 1.4790e+02 0.0000e+00
       11  1    3    3    0    0 +1.2737496170e-02 +1.3503723314e-02 +1.8325877120e-01 1.8419726571e-01 5.1100000000e-04 0.0000e+00 1.0000e+00
      255  1    3    3    0    0 +1.2215664525e+02 -4.3325722542e+01 +1.8839852845e+02 2.6061153032e+02 1.2500000000e+02 0.0000e+00 0.0000e+00
      -11  1    4    4    0    0 -5.2723383829e-02 +6.1905081376e-02 -4.0598214494e-03 8.1417059477e-02 5.1100000000e-04 0.0000e+00 -1.0000e+00
      255  1    4    4    0    0 -1.2211665937e+02 +4.3250313737e+01 +1.8260384175e+02 2.5642197869e+02 1.2500000000e+02 0.0000e+00 0.0000e+00
<mgrwt>
<rscale>  0 0.36030907E+03</rscale>
<asrwt>0</asrwt>
<pdfrwt beam="1">  1        2 0.68344669E-01 0.36030907E+03</pdfrwt>
<pdfrwt beam="2">  1       -2 0.11239812E-01 0.36030907E+03</pdfrwt>
<totfact> 0.39247997E+03</totfact>
</mgrwt>
</event>
<event>
 8      1 +1.6198320e-01 3.15126700e+02 7.81860800e-03 1.07791400e-01
       -2 -1    0    0    0  501 -0.0000000000e+00 +0.0000000000e+00 +1.1499468833e+01 1.1499469115e+01 2.5500000000e-03 0.0000e+00 -1.0000e+00
        2 -1    0    0  501    0 +0.0000000000e+00 -0.0000000000e+00 -2.1589009400e+03 2.1589009400e+03 2.5500000000e-03 0.0000e+00 1.0000e+00
  1000101  2    1    2    0    0 +8.6832839467e+01 -4.0411459593e+01 -1.0615815313e+03 1.0732093928e+03 1.2510005968e+02 8.7081e+01 0.0000e+00
 -1000101  2    1    2    0    0 -8.6832839467e+01 +4.0411459593e+01 -1.0858199398e+03 1.0971910164e+03 1.2510058589e+02 1.2851e+01 0.0000e+00
       11  1    3    3    0    0 -5.1040661100e-02 -2.8926485131e-02 -3.8141247426e-01 3.8589846757e-01 5.1100000000e-04 0.0000e+00 1.0000e+00
      255  1    3    3    0    0 +8.6883880129e+01 -4.0382533108e+01 -1.0612001189e+03 1.0728234943e+03 1.2500000000e+02 0.0000e+00 0.0000e+00
      -11  1    4    4    0    0 -8.8578106233e-02 +6.9755160187e-02 -3.5804103655e-01 3.7537382468e-01 5.1100000000e-04 0.0000e+00 -1.0000e+00
      255  1    4    4    0    0 -8.6744261361e+01 +4.0341704433e+01 -1.0854618988e+03 1.0968156425e+03 1.2500000000e+02 0.0000e+00 0.0000e+00
<mgrwt>
<rscale>  0 0.31512673E+03</rscale>
<asrwt>0</asrwt>
<pdfrwt beam="1">  1        2 0.33213828E+00 0.31512673E+03</pdfrwt>
<pdfrwt beam="2">  1       -2 0.17691508E-02 0.31512673E+03</pdfrwt>
<totfact> 0.56696060E+03</totfact>
</mgrwt>
</event>
<event>
 8      1 +1.6198320e-01 2.64325800e+02 7.81860800e-03 1.10457200e-01
       -2 -1    0    0    0  501 -0.0000000000e+00 +0.0000000000e+00 +1.7156766883e+01 1.7156767073e+01 2.5500000000e-03 0.0000e+00 -1.0000e+00
        2 -1    0    0  501    0 +0.0000000000e+00 -0.0000000000e+00 -1.0180838958e+03 1.0180838958e+03 2.5500000000e-03 0.0000e+00 1.0000e+00
  1000101  2    1    2    0    0 +4.3936291031e+00 +3.3409475439e+01 -6.0270723309e+02 6.1647510276e+02 1.2510014578e+02 9.8576e+01 0.0000e+00
 -1000101  2    1    2    0    0 -4.3936291031e+00 -3.3409475439e+01 -3.9821989585e+02 4.1876556014e+02 1.2510000753e+02 2.0544e+02 0.0000e+00
       11  1    3    3    0    0 -8.0594941926e-02 +5.8881833794e-02 -7.1729232275e-01 7.2420380585e-01 5.1100000000e-04 0.0000e+00 1.0000e+00
      255  1    3    3    0    0 +4.4742240450e+00 +3.3350593606e+01 -6.0198994077e+02 6.1575089895e+02 1.2500000000e+02 0.0000e+00 0.0000e+00
      -11  1    4    4    0    0 -4.7394819177e-02 -6.6005398239e-03 -2.3655118074e-02 5.3382223107e-02 5.1100000000e-04 0.0000e+00 -1.0000e+00
      255  1    4    4    0    0 -4.3462342839e+00 -3.3402874899e+01 -3.9819624073e+02 4.1871217792e+02 1.2500000000e+02 0.0000e+00 0.0000e+00
<mgrwt>
<rscale>  0 0.26432577E+03</rscale>
<asrwt>0</asrwt>
<pdfrwt beam="1">  1        2 0.15662824E+00 0.26432577E+03</pdfrwt>
<pdfrwt beam="2">  1       -2 0.26395034E-02 0.26432577E+03</pdfrwt>
<totfact> 0.13064880E+04</totfact>
</mgrwt>
</event>
<event>
 8      1 +1.6198320e-01 3.38901500e+02 7.81860800e-03 1.06726500e-01
        2 -1    0    0  501    0 +0.0000000000e+00 +0.0000000000e+00 +1.1597614400e+03 1.1597614400e+03 2.5500000000e-03 0.0000e+00 1.0000e+00
       -2 -1    0    0    0  501 -0.0000000000e+00 -0.0000000000e+00 -2.4758156066e+01 2.4758156197e+01 2.5500000000e-03 0.0000e+00 -1.0000e+00
  1000101  2    1    2    0    0 -5.0125141947e+01 +6.4009868112e+01 +8.4828727676e+02 8.6130782378e+02 1.2510024108e+02 3.8620e+01 0.0000e+00
 -1000101  2    1    2    0    0 +5.0125141947e+01 -6.4009868112e+01 +2.8671600717e+02 3.2321177242e+02 1.2509991203e+02 1.6686e+01 0.0000e+00
       11  1    3    3    0    0 +2.1887945614e-02 +5.5377663991e-02 +1.0415852697e-01 1.1997928027e-01 5.1100000000e-04 0.0000e+00 1.0000e+00
      255  1    3    3    0    0 -5.0147029893e+01 +6.3954490448e+01 +8.4818311823e+02 8.6118784450e+02 1.2500000000e+02 0.0000e+00 0.0000e+00
      -11  1    4    4    0    0 +5.6106693260e-02 +4.1857038450e-02 +5.9596461519e-02 9.1934607429e-02 5.1100000000e-04 0.0000e+00 -1.0000e+00
      255  1    4    4    0    0 +5.0069035254e+01 -6.4051725150e+01 +2.8665641071e+02 3.2311983781e+02 1.2500000000e+02 0.0000e+00 0.0000e+00
<mgrwt>
<rscale>  0 0.33890149E+03</rscale>
<asrwt>0</asrwt>
<pdfrwt beam="1">  1        2 0.17842484E+00 0.33890149E+03</pdfrwt>
<pdfrwt beam="2">  1       -2 0.38089470E-02 0.33890149E+03</pdfrwt>
<totfact> 0.62599318E+03</totfact>
</mgrwt>
</event>
<event>
 8      1 +1.6198320e-01 4.83384200e+02 7.81860800e-03 1.01820900e-01
        1 -1    0    0  501    0 +0.0000000000e+00 +0.0000000000e+00 +2.0771346585e+03 2.0771346585e+03 5.0400000000e-03 0.0000e+00 1.0000e+00
       -1 -1    0    0    0  501 -0.0000000000e+00 -0.0000000000e+00 -2.8122910799e+01 2.8122911250e+01 5.0400000000e-03 0.0000e+00 -1.0000e+00
  1000101  2    1    2    0    0 -3.9523479556e+01 +1.8608442463e+02 +6.7133979323e+02 7.0889817966e+02 1.2509993057e+02 1.5036e+01 0.0000e+00
 -1000101  2    1    2    0    0 +3.9523479556e+01 -1.8608442463e+02 +1.3776719545e+03 1.3963593901e+03 1.2510001456e+02 9.0935e+00 0.0000e+00
       11  1    3    3    0    0 +7.1524116212e-02 +7.8011093418e-02 +2.8493943911e-01 3.0396081158e-01 5.1100000000e-04 0.0000e+00 1.0000e+00
      255  1    3    3    0    0 -3.9595003672e+01 +1.8600641353e+02 +6.7105485379e+02 7.0859421885e+02 1.2500000000e+02 0.0000e+00 0.0000e+00
      -11  1    4    4    0    0 +4.7881502552e-03 +1.4312806097e-02 +1.2748587333e-02 1.9762854080e-02 5.1100000000e-04 0.0000e+00 -1.0000e+00
      255  1    4    4    0    0 +3.9518691405e+01 -1.8609873743e+02 +1.3776592059e+03 1.3963396272e+03 1.2500000000e+02 0.0000e+00 0.0000e+00
<mgrwt>
<rscale>  0 0.48338421E+03</rscale>
<asrwt>0</asrwt>
<pdfrwt beam="1">  1        1 0.31955911E+00 0.48338421E+03</pdfrwt>
<pdfrwt beam="2">  1       -1 0.43266026E-02 0.48338421E+03</pdfrwt>
<totfact> 0.64300903E+02</totfact>
</mgrwt>
</event>
<event>
 8      1 +1.6198320e-01 4.22917500e+02 7.81860800e-03 1.03612100e-01
        2 -1    0    0  501    0 +0.0000000000e+00 +0.0000000000e+00 +9.1682317765e+02 9.1682317765e+02 2.5500000000e-03 0.0000e+00 1.0000e+00
       -2 -1    0    0    0  501 -0.0000000000e+00 -0.0000000000e+00 -4.8771462448e+01 4.8771462514e+01 2.5500000000e-03 0.0000e+00 -1.0000e+00
  1000101  2    1    2    0    0 -4.7317710607e+01 -4.0536498055e+01 +7.1708056599e+01 1.5708031162e+02 1.2509998203e+02 2.7681e+02 0.0000e+00
 -1000101  2    1    2    0    0 +4.7317710607e+01 +4.0536498055e+01 +7.9634365860e+02 8.0851432855e+02 1.2510005381e+02 2.9017e+02 0.0000e+00
       11  1    3    3    0    0 +6.6094367279e-02 -4.4158530740e-02 +3.2010427236e-02 8.5693464142e-02 5.1100000000e-04 0.0000e+00 1.0000e+00
      255  1    3    3    0    0 -4.7383804974e+01 -4.0492339525e+01 +7.1676046172e+01 1.5699461815e+02 1.2500000000e+02 0.0000e+00 0.0000e+00
      -11  1    4    4    0    0 +1.2820544880e-01 +4.8496665898e-03 +5.3505714072e-01 5.5022410100e-01 5.1100000000e-04 0.0000e+00 -1.0000e+00
      255  1    4    4    0    0 +4.7189505158e+01 +4.0531648389e+01 +7.9580860146e+02 8.0796410445e+02 1.2500000000e+02 0.0000e+00 0.0000e+00
<mgrwt>
<rscale>  0 0.42291752E+03</rscale>
<asrwt>0</asrwt>
<pdfrwt beam="1">  1        2 0.14104971E+00 0.42291752E+03</pdfrwt>
<pdfrwt beam="2">  1       -2 0.75033024E-02 0.42291752E+03</pdfrwt>
<totfact> 0.31105161E+03</totfact>
</mgrwt>
</event>
<event>
 8      1 +1.6198320e-01 2.63670100e+02 7.81860800e-03 1.10495800e-01
       -2 -1    0    0    0  501 -0.0000000000e+00 +0.0000000000e+00 +2.1457513979e+02 2.1457513981e+02 2.5500000000e-03 0.0000e+00 1.0000e+00
        2 -1    0    0  501    0 +0.0000000000e+00 -0.0000000000e+00 -8.0999477887e+01 8.0999477927e+01 2.5500000000e-03 0.0000e+00 -1.0000e+00
  1000101  2    1    2    0    0 -1.9542627872e+01 -8.7527046619e+00 +2.6806487369e+01 1.2971863455e+02 1.2509920960e+02 9.1561e+00 0.0000e+00
 -1000101  2    1    2    0    0 +1.9542627872e+01 +8.7527046619e+00 +1.0676917453e+02 1.6585598318e+02 1.2510006548e+02 7.1397e+01 0.0000e+00
       11  1    3    3    0    0 +5.4952903364e-02 -2.6984992263e-02 +8.8266653446e-02 1.0742101576e-01 5.1100000000e-04 0.0000e+00 1.0000e+00
      255  1    3    3    0    0 -1.9597580775e+01 -8.7257196697e+00 +2.6718220716e+01 1.2961121354e+02 1.2500000000e+02 0.0000e+00 0.0000e+00
      -11  1    4    4    0    0 +1.0226084276e-01 -4.3125573375e-02 +1.0569034139e-01 1.5325731443e-01 5.1100000000e-04 0.0000e+00 -1.0000e+00
      255  1    4    4    0    0 +1.9440367029e+01 +8.7958302353e+00 +1.0666348419e+02 1.6570272587e+02 1.2500000000e+02 0.0000e+00 0.0000e+00
<mgrwt>
<rscale>  0 0.26367005E+03</rscale>
<asrwt>0</asrwt>
<pdfrwt beam="1">  1        2 0.12461458E-01 0.26367005E+03</pdfrwt>
<pdfrwt beam="2">  1       -2 0.33011559E-01 0.26367005E+03</pdfrwt>
<totfact> 0.41486676E+03</totfact>
</mgrwt>
</event>
<event>
 8      1 +1.6198320e-01 3.52838300e+02 7.81860800e-03 1.06145600e-01
       -2 -1    0    0    0  501 -0.0000000000e+00 +0.0000000000e+00 +3.1337852098e+01 3.1337852202e+01 2.5500000000e-03 0.0000e+00 -1.0000e+00
        2 -1    0    0  501    0 +0.0000000000e+00 -0.0000000000e+00 -9.9316670996e+02 9.9316670997e+02 2.5500000000e-03 0.0000e+00 1.0000e+00
  1000101  2    1    2    0    0 -7.8897721186e+00 +4.2266360701e+01 -1.4198912537e+02 1.9406136802e+02 1.2510079570e+02 2.3000e+02 0.0000e+00
 -1000101  2    1    2    0    0 +7.8897721186e+00 -4.2266360701e+01 -8.1983973249e+02 8.3044319414e+02 1.2510003189e+02 1.6855e+02 0.0000e+00
       11  1    3    3    0    0 +6.7430453145e-02 -2.0378671987e-02 -2.1842752126e-02 7.3753123493e-02 5.1100000000e-04 0.0000e+00 1.0000e+00
      255  1    3    3    0    0 -7.9572025718e+00 +4.2286739373e+01 -1.4196728262e+02 1.9398761490e+02 1.2500000000e+02 0.0000e+00 0.0000e+00
      -11  1    4    4    0    0 +3.3256740888e-02 -1.2717553846e-01 -6.0394603174e-01 6.1808631984e-01 5.1100000000e-04 0.0000e+00 -1.0000e+00
      255  1    4    4    0    0 +7.8565153777e+00 -4.2139185162e+01 -8.1923578646e+02 8.2982510782e+02 1.2500000000e+02 0.0000e+00 0.0000e+00
<mgrwt>
<rscale>  0 0.35283827E+03</rscale>
<asrwt>0</asrwt>
<pdfrwt beam="1">  1        2 0.15279485E+00 0.35283827E+03</pdfrwt>
<pdfrwt beam="2">  1       -2 0.48212088E-02 0.35283827E+03</pdfrwt>
<totfact> 0.55108180E+03</totfact>
</mgrwt>
</event>
<event>
 8      1 +1.6198320e-01 3.40242700e+02 7.81860800e-03 1.06669300e-01
        2 -1    0    0  501    0 +0.0000000000e+00 +0.0000000000e+00 +1.4102144991e+02 1.4102144993e+02 2.5500000000e-03 0.0000e+00 1.0000e+00
       -2 -1    0    0    0  501 -0.0000000000e+00 -0.0000000000e+00 -2.0522608097e+02 2.0522608098e+02 2.5500000000e-03 0.0000e+00 -1.0000e+00
  1000101  2    1    2    0    0 -6.1100899915e+00 -8.0769726162e+01 -1.1558846519e+02 1.8860463310e+02 1.2509969017e+02 2.0029e+02 0.0000e+00
 -1000101  2    1    2    0    0 +6.1100899915e+00 +8.0769726162e+01 +5.1383834124e+01 1.5764289781e+02 1.2509957217e+02 3.8619e+02 0.0000e+00
       11  1    3    3    0    0 +1.0303740211e-02 -8.5278850056e-02 +2.2148511547e-02 8.8710016427e-02 5.1100000000e-04 0.0000e+00 1.0000e+00
      255  1    3    3    0    0 -6.1203937317e+00 -8.0684447312e+01 -1.1561061370e+02 1.8851592309e+02 1.2500000000e+02 0.0000e+00 0.0000e+00
      -11  1    4    4    0    0 +6.1996584262e-03 -1.2877218903e-02 -5.3353777537e-02 5.5237172544e-02 5.1100000000e-04 0.0000e+00 -1.0000e+00
      255  1    4    4    0    0 +6.1038903331e+00 +8.0782603381e+01 +5.1437187901e+01 1.5758766064e+02 1.2500000000e+02 0.0000e+00 0.0000e+00
<mgrwt>
<rscale>  0 0.34024273E+03</rscale>
<asrwt>0</asrwt>
<pdfrwt beam="1">  1        2 0.21695608E-01 0.34024273E+03</pdfrwt>
<pdfrwt beam="2">  1       -2 0.31573243E-01 0.34024273E+03</pdfrwt>
<totfact> 0.23621540E+03</totfact>
</mgrwt>
</event>
<event>
 8      1 +1.6198320e-01 2.61410700e+02 7.81860800e-03 1.10629900e-01
       -2 -1    0    0    0  501 -0.0000000000e+00 +0.0000000000e+00 +6.2103285524e+01 6.2103285576e+01 2.5500000000e-03 0.0000e+00 -1.0000e+00
        2 -1    0    0  501    0 +0.0000000000e+00 -0.0000000000e+00 -2.7508826301e+02 2.7508826302e+02 2.5500000000e-03 0.0000e+00 1.0000e+00
  1000101  2    1    2    0    0 +3.4731734408e+01 +1.2555955714e+01 -9.5711864923e+01 1.6178604526e+02 1.2510003180e+02 1.4485e+02 0.0000e+00
 -1000101  2    1    2    0    0 -3.4731734408e+01 -1.2555955714e+01 -1.1727311256e+02 1.7540550334e+02 1.2510060860e+02 6.2630e+01 0.0000e+00
       11  1    3    3    0    0 +9.2962363639e-02 -5.7730473659e-03 -1.8215980821e-01 2.0459175442e-01 5.1100000000e-04 0.0000e+00 1.0000e+00
      255  1    3    3    0    0 +3.4638772044e+01 +1.2561728762e+01 -9.5529705114e+01 1.6158145351e+02 1.2500000000e+02 0.0000e+00 0.0000e+00
      -11  1    4    4    0    0 +1.4425905753e-02 +2.2944430431e-02 +3.4696097337e-02 4.4029920915e-02 5.1100000000e-04 0.0000e+00 -1.0000e+00
      255  1    4    4    0    0 -3.4746160313e+01 -1.2578900145e+01 -1.1730780866e+02 1.7536147341e+02 1.2500000000e+02 0.0000e+00 0.0000e+00
<mgrwt>
<rscale>  0 0.26141067E+03</rscale>
<asrwt>0</asrwt>
<pdfrwt beam="1">  1        2 0.42321271E-01 0.26141067E+03</pdfrwt>
<pdfrwt beam="2">  1       -2 0.95543517E-02 0.26141067E+03</pdfrwt>
<totfact> 0.84829602E+03</totfact>
</mgrwt>
</event>
<event>
 8      1 +1.6198320e-01 2.58757900e+02 7.81860800e-03 1.10789200e-01
       -2 -1    0    0    0  501 -0.0000000000e+00 +0.0000000000e+00 +1.0439890718e+01 1.0439891029e+01 2.5500000000e-03 0.0000e+00 -1.0000e+00
        2 -1    0    0  501    0 +0.0000000000e+00 -0.0000000000e+00 -1.6033605971e+03 1.6033605971e+03 2.5500000000e-03 0.0000e+00 1.0000e+00
  1000101  2    1    2    0    0 +7.0365758703e+00 -2.5376739079e+01 -6.7244213999e+02 6.8448659849e+02 1.2509987849e+02 4.2803e+01 0.0000e+00
 -1000101  2    1    2    0    0 -7.0365758703e+00 +2.5376739079e+01 -9.2047856642e+02 9.2931388966e+02 1.2510004796e+02 9.7488e+01 0.0000e+00
       11  1    3    3    0    0 -8.0404497019e-02 -1.7970329882e-02 -2.3689947829e-01 2.5081754291e-01 5.1100000000e-04 0.0000e+00 1.0000e+00
      255  1    3    3    0    0 +7.1169803673e+00 -2.5358768749e+01 -6.7220524051e+02 6.8423578095e+02 1.2500000000e+02 0.0000e+00 0.0000e+00
      -11  1    4    4    0    0 -1.7831180192e-02 +8.5557451934e-02 -2.8142739866e-01 2.9468571462e-01 5.1100000000e-04 0.0000e+00 -1.0000e+00
      255  1    4    4    0    0 -7.0187446901e+00 +2.5291181627e+01 -9.2019713902e+02 9.2901920395e+02 1.2500000000e+02 0.0000e+00 0.0000e+00
<mgrwt>
<rscale>  0 0.25875788E+03</rscale>
<asrwt>0</asrwt>
<pdfrwt beam="1">  1        2 0.24667067E+00 0.25875788E+03</pdfrwt>
<pdfrwt beam="2">  1       -2 0.16061383E-02 0.25875788E+03</pdfrwt>
<totfact> 0.12803553E+04</totfact>
</mgrwt>
</event>
<event>
 8      1 +1.6198320e-01 2.68072500e+02 7.81860800e-03 1.10238800e-01
        2 -1    0    0  501    0 +0.0000000000e+00 +0.0000000000e+00 +1.2505678464e+03 1.2505678464e+03 2.5500000000e-03 0.0000e+00 1.0000e+00
       -2 -1    0    0    0  501 -0.0000000000e+00 -0.0000000000e+00 -1.4366042370e+01 1.4366042597e+01 2.5500000000e-03 0.0000e+00 -1.0000e+00
  1000101  2    1    2    0    0 -1.5739166675e+01 -1.8563687631e+01 +4.2221403730e+02 4.4102950921e+02 1.2509997137e+02 3.3109e+01 0.0000e+00
 -1000101  2    1    2    0    0 +1.5739166675e+01 +1.8563687631e+01 +8.1398776671e+02 8.2390437977e+02 1.2510000312e+02 4.8031e+01 0.0000e+00
       11  1    3    3    0    0 -4.5887517824e-02 +3.3268619540e-02 +6.0821023897e-01 6.1084566074e-01 5.1100000000e-04 0.0000e+00 1.0000e+00
      255  1    3    3    0    0 -1.5693279157e+01 -1.8596956250e+01 +4.2160582706e+02 4.4041866355e+02 1.2500000000e+02 0.0000e+00 0.0000e+00
      -11  1    4    4    0    0 +2.3013711460e-02 -8.3845290330e-02 +6.8198257972e-01 6.8750284638e-01 5.1100000000e-04 0.0000e+00 -1.0000e+00
      255  1    4    4    0    0 +1.5716152964e+01 +1.8647532921e+01 +8.1330578413e+02 8.2321687692e+02 1.2500000000e+02 0.0000e+00 0.0000e+00
<mgrwt>
<rscale>  0 0.26807246E+03</rscale>
<asrwt>0</asrwt>
<pdfrwt beam="1">  1        2 0.19239505E+00 0.26807246E+03</pdfrwt>
<pdfrwt beam="2">  1       -2 0.22101604E-02 0.26807246E+03</pdfrwt>
<totfact> 0.12450633E+04</totfact>
</mgrwt>
</event>
<event>
 8      1 +1.6198320e-01 3.43945700e+02 7.81860800e-03 1.06512800e-01
        2 -1    0    0  501    0 +0.0000000000e+00 +0.0000000000e+00 +8.6845409085e+02 8.6845409085e+02 2.5500000000e-03 0.0000e+00 1.0000e+00
       -2 -1    0    0    0  501 -0.0000000000e+00 -0.0000000000e+00 -3.4054369956e+01 3.4054370051e+01 2.5500000000e-03 0.0000e+00 -1.0000e+00
  1000101  2    1    2    0    0 +1.0357288059e+02 +2.9360646208e+01 +2.9039246352e+02 3.3401635042e+02 1.2509896218e+02 1.0517e+02 0.0000e+00
 -1000101  2    1    2    0    0 -1.0357288059e+02 -2.9360646208e+01 +5.4400725737e+02 5.6849211048e+02 1.2509993791e+02 5.1290e+02 0.0000e+00
       11  1    3    3    0    0 +1.2549496331e-02 -4.5294507432e-02 +1.3851783485e-02 4.9002196779e-02 5.1100000000e-04 0.0000e+00 1.0000e+00
      255  1    3    3    0    0 +1.0356033110e+02 +2.9405940715e+01 +2.9037861174e+02 3.3396734823e+02 1.2500000000e+02 0.0000e+00 0.0000e+00
      -11  1    4    4    0    0 -2.1152387610e-01 -2.6560616778e-02 +6.9966126373e-01 7.3141914222e-01 5.1100000000e-04 0.0000e+00 -1.0000e+00
      255  1    4    4    0    0 -1.0336135672e+02 -2.9334085591e+01 +5.4330759611e+02 5.6776069134e+02 1.2500000000e+02 0.0000e+00 0.0000e+00
<mgrwt>
<rscale>  0 0.34394568E+03</rscale>
<asrwt>0</asrwt>
<pdfrwt beam="1">  1        2 0.13360831E+00 0.34394568E+03</pdfrwt>
<pdfrwt beam="2">  1       -2 0.52391341E-02 0.34394568E+03</pdfrwt>
<totfact> 0.58324579E+03</totfact>
</mgrwt>
</event>
<event>
 8      1 +1.6198320e-01 2.83727500e+02 7.81860800e-03 1.09367000e-01
        2 -1    0    0  501    0 +0.0000000000e+00 +0.0000000000e+00 +6.6335516929e+02 6.6335516929e+02 2.5500000000e-03 0.0000e+00 1.0000e+00
       -2 -1    0    0    0  501 -0.0000000000e+00 -0.0000000000e+00 -3.0338690517e+01 3.0338690624e+01 2.5500000000e-03 0.0000e+00 -1.0000e+00
  1000101  2    1    2    0    0 -2.0710669038e+01 -3.1509004709e+01 +1.8140526163e+02 2.2356134234e+02 1.2510018247e+02 1.1880e+01 0.0000e+00
 -1000101  2    1    2    0    0 +2.0710669038e+01 +3.1509004709e+01 +4.5161121714e+02 4.7013251758e+02 1.2510053335e+02 1.2270e+01 0.0000e+00
       11  1    3    3    0    0 +5.0419747546e-02 -4.4421893158e-02 +1.3434657400e-02 6.8528874757e-02 5.1100000000e-04 0.0000e+00 1.0000e+00
      255  1    3    3    0    0 -2.0761088786e+01 -3.1464582816e+01 +1.8139182697e+02 2.2349281347e+02 1.2500000000e+02 0.0000e+00 0.0000e+00
      -11  1    4    4    0    0 +1.1274667929e-01 -4.6882390029e-03 +4.0860045329e-01 4.2389666763e-01 5.1100000000e-04 0.0000e+00 -1.0000e+00
      255  1    4    4    0    0 +2.0597922359e+01 +3.1513692948e+01 +4.5120261669e+02 4.6970862091e+02 1.2500000000e+02 0.0000e+00 0.0000e+00
<mgrwt>
<rscale>  0 0.28372753E+03</rscale>
<asrwt>0</asrwt>
<pdfrwt beam="1">  1        2 0.10205464E+00 0.28372753E+03</pdfrwt>
<pdfrwt beam="2">  1       -2 0.46674910E-02 0.28372753E+03</pdfrwt>
<totfact> 0.97109112E+03</totfact>
</mgrwt>
</event>
</LesHouchesEvents>
